
  ___ ___ ___ _ _ _  
 |   |   |_  | | | | 
 | | | | | . | | | | 
 |__ |  _|___|_____|  19.8.1
 |___|_|             

User:   eliasel@hebbe12-1
Date:   Thu Feb 18 15:49:44 2021
Arch:   x86_64
Pid:    26731
Python: 3.7.2
gpaw:   /apps/Hebbe7/software/MPI/intel/2019.1.144-GCC-8.2.0-2.31.1/impi/2018.4.274/GPAW/19.8.1-Python-3.7.2/lib/python3.7/site-packages/gpaw
_gpaw:  /apps/Hebbe7/software/MPI/intel/2019.1.144-GCC-8.2.0-2.31.1/impi/2018.4.274/GPAW/19.8.1-Python-3.7.2/lib/python3.7/site-packages/
        _gpaw.cpython-37m-x86_64-linux-gnu.so
ase:    /apps/Hebbe7/software/MPI/intel/2019.1.144-GCC-8.2.0-2.31.1/impi/2018.4.274/ASE/3.18.0-Python-3.7.2/lib/python3.7/site-packages/ase (version 3.18.0)
numpy:  /apps/Hebbe7/software/MPI/intel/2019.1.144-GCC-8.2.0-2.31.1/impi/2018.4.274/SciPy-bundle/2019.03/lib/python3.7/site-packages/numpy (version 1.16.2)
scipy:  /apps/Hebbe7/software/MPI/intel/2019.1.144-GCC-8.2.0-2.31.1/impi/2018.4.274/SciPy-bundle/2019.03/lib/python3.7/site-packages/scipy (version 1.2.1)
libxc:  4.3.4
units:  Angstrom and eV
cores:  1

Input parameters:
  convergence: {bands: -10}
  fixdensity: True
  nbands: 110

Initialize ...

Na-setup:
  name: Sodium
  id: fa5c50181d04022fed15b2593599c257
  Z: 11
  valence: 1
  core: 10
  charge: 0.0
  file: /apps/Hebbe7/software/Core/GPAW-setups/0.9.20000/Na.1.LDA.gz
  compensation charges: gauss, rc=0.43, lmax=2
  cutoffs: 2.36(filt), 3.60(core),
  valence states:
                energy  radius
    3s(1.00)    -2.819   1.349
    3p(0.00)    -0.774   1.349
    *s          24.392   1.349

  Using partial waves for Na as LCAO basis

Reference energy: -35189.668405

Spin-paired calculation

Occupation numbers:
  Fixed Fermi level
  Fermi-Dirac: width=0.0000 eV

Convergence criteria:
  Maximum total energy change: 0.0005 eV / electron
  Maximum integral of absolute density change: 0.0001 electrons
  Maximum integral of absolute eigenstate change: 4e-08 eV^2
  Maximum number of iterations: 333

Symmetries present (total): 1

  ( 1  0  0)
  ( 0  1  0)
  ( 0  0  1)

1 k-point (Gamma)
1 k-point in the irreducible part of the Brillouin zone
       k-points in crystal coordinates                weights
   0:     0.00000000    0.00000000    0.00000000          1/1

Wave functions: Uniform real-space grid
  Kinetic energy operator: 6*3+1=19 point O(h^6) finite-difference Laplacian
  ScaLapack parameters: grid=1x1, blocksize=None
  Wavefunction extrapolation:
    Improved wavefunction reuse through dual PAW basis 

Eigensolver
   Davidson(niter=2, smin=None, normalize=True) 

No density mixing

Memory estimate:
  Process memory now: 307.30 MiB
  Calculator: 685.66 MiB
    Density: 93.67 MiB
      Arrays: 64.51 MiB
      Localized functions: 14.57 MiB
      Mixer: 14.59 MiB
    Hamiltonian: 43.25 MiB
      Arrays: 42.20 MiB
      XC: 0.00 MiB
      Poisson: 0.00 MiB
      vbar: 1.05 MiB
    Wavefunctions: 548.73 MiB
      Arrays psit_nG: 267.48 MiB
      Eigensolver: 280.56 MiB
      Projections: 0.03 MiB
      Projectors: 0.66 MiB

Total number of cores used: 1

Number of atoms: 8
Number of atomic orbitals: 32
Number of bands in calculation: 110
Bands to converge: -10 lowest bands
Number of valence electrons: 8

... initialized

Initializing position-dependent things.

Creating initial wave functions:
  32 bands from LCAO basis set
  78 bands from random numbers

             .------------------------------------------------.  
            /|                                                |  
           / |                                                |  
          /  |                                                |  
         /   |                                                |  
        /    |                                                |  
       /     |                                                |  
      /      |                                                |  
     /       |                                                |  
    /        |                                                |  
   /         |                                                |  
  /          |                                                |  
 *           |                                                |  
 |           |                                                |  
 |           |                                                |  
 |           |                      Na                        |  
 |           |             Na                                 |  
 |           |                Na                              |  
 |           |                                                |  
 |           |                   Na  Na                       |  
 |           |            Na                                  |  
 |           |                                                |  
 |           |                Na                              |  
 |           |                   Na                           |  
 |           |                                                |  
 |           |                                                |  
 |           .------------------------------------------------.  
 |          /                                                /   
 |         /                                                /    
 |        /                                                /     
 |       /                                                /      
 |      /                                                /       
 |     /                                                /        
 |    /                                                /         
 |   /                                                /          
 |  /                                                /           
 | /                                                /            
 |/                                                /             
 *------------------------------------------------*              

Positions:
   0 Na    11.144626    8.090647   11.876539    ( 0.0000,  0.0000,  0.0000)
   1 Na    10.977844    8.000000    8.614803    ( 0.0000,  0.0000,  0.0000)
   2 Na    11.397682   11.261714   13.134418    ( 0.0000,  0.0000,  0.0000)
   3 Na    12.011229   10.994755    9.947283    ( 0.0000,  0.0000,  0.0000)
   4 Na     8.333340    9.460341   13.327794    ( 0.0000,  0.0000,  0.0000)
   5 Na     9.175418   10.970944    8.000000    ( 0.0000,  0.0000,  0.0000)
   6 Na     8.756920   12.012941   11.065977    ( 0.0000,  0.0000,  0.0000)
   7 Na     8.000000    8.603132   10.209496    ( 0.0000,  0.0000,  0.0000)

Unit cell:
           periodic     x           y           z      points  spacing
  1. axis:    no    20.011229    0.000000    0.000000    68     0.2943
  2. axis:    no     0.000000   20.012941    0.000000    68     0.2943
  3. axis:    no     0.000000    0.000000   21.327794    72     0.2962

  Lengths:  20.011229  20.012941  21.327794
  Angles:   90.000000  90.000000  90.000000

Effective grid spacing dv^(1/3) = 0.2949

                     log10-error:    total        iterations:
           time      wfs    density  energy       fermi  poisson
iter:   1  15:50:05  +3.41           -7.897948    0      1      
iter:   2  15:50:21  +2.66           -7.929229    0             
iter:   3  15:50:38  +2.41           -7.935170    0             
iter:   4  15:50:54  +2.13           -7.937052    0             
iter:   5  15:51:11  +1.90           -7.937759    0             
iter:   6  15:51:27  +1.70           -7.938047    0             
iter:   7  15:51:43  +1.53           -7.938168    0             
iter:   8  15:51:59  +1.38           -7.938221    0             
iter:   9  15:52:15  +1.25           -7.938244    0             
iter:  10  15:52:31  +1.12           -7.938254    0             
iter:  11  15:52:48  +1.00           -7.938258    0             
iter:  12  15:53:04  +0.89           -7.938260    0             
iter:  13  15:53:20  +0.78           -7.938261    0             
iter:  14  15:53:36  +0.68           -7.938261    0             
iter:  15  15:53:52  +0.59           -7.938262    0             
iter:  16  15:54:09  +0.51           -7.938262    0             
iter:  17  15:54:25  +0.43           -7.938262    0             
iter:  18  15:54:41  +0.35           -7.938262    0             
iter:  19  15:54:57  +0.28           -7.938262    0             
iter:  20  15:55:13  +0.20           -7.938262    0             
iter:  21  15:55:29  +0.13           -7.938262    0             
iter:  22  15:55:45  +0.06           -7.938262    0             
iter:  23  15:56:01  -0.01           -7.938262    0             
iter:  24  15:56:17  -0.07           -7.938262    0             
iter:  25  15:56:33  -0.14           -7.938262    0             
iter:  26  15:56:49  -0.21           -7.938262    0             
iter:  27  15:57:06  -0.27           -7.938262    0             
iter:  28  15:57:22  -0.33           -7.938262    0             
iter:  29  15:57:38  -0.39           -7.938262    0             
iter:  30  15:57:54  -0.45           -7.938262    0             
iter:  31  15:58:10  -0.51           -7.938262    0             
iter:  32  15:58:26  -0.57           -7.938262    0             
iter:  33  15:58:42  -0.63           -7.938262    0             
iter:  34  15:58:58  -0.69           -7.938262    0             
iter:  35  15:59:14  -0.74           -7.938262    0             
iter:  36  15:59:31  -0.80           -7.938262    0             
iter:  37  15:59:47  -0.85           -7.938262    0             
iter:  38  16:00:03  -0.90           -7.938262    0             
iter:  39  16:00:19  -0.96           -7.938262    0             
iter:  40  16:00:35  -1.01           -7.938262    0             
iter:  41  16:00:52  -1.06           -7.938262    0             
iter:  42  16:01:08  -1.11           -7.938262    0             
iter:  43  16:01:24  -1.16           -7.938262    0             
iter:  44  16:01:40  -1.21           -7.938262    0             
iter:  45  16:01:56  -1.26           -7.938262    0             
iter:  46  16:02:12  -1.31           -7.938262    0             
iter:  47  16:02:29  -1.36           -7.938262    0             
iter:  48  16:02:45  -1.41           -7.938262    0             
iter:  49  16:03:01  -1.45           -7.938262    0             
iter:  50  16:03:17  -1.50           -7.938262    0             
iter:  51  16:03:34  -1.55           -7.938262    0             
iter:  52  16:03:50  -1.59           -7.938262    0             
iter:  53  16:04:06  -1.64           -7.938262    0             
iter:  54  16:04:22  -1.68           -7.938262    0             
iter:  55  16:04:38  -1.73           -7.938262    0             
iter:  56  16:04:54  -1.77           -7.938262    0             
iter:  57  16:05:11  -1.81           -7.938262    0             
iter:  58  16:05:27  -1.86           -7.938262    0             
iter:  59  16:05:43  -1.90           -7.938262    0             
iter:  60  16:05:59  -1.94           -7.938262    0             
iter:  61  16:06:15  -1.99           -7.938262    0             
iter:  62  16:06:32  -2.03           -7.938262    0             
iter:  63  16:06:48  -2.07           -7.938262    0             
iter:  64  16:07:04  -2.11           -7.938262    0             
iter:  65  16:07:20  -2.16           -7.938262    0             
iter:  66  16:07:36  -2.20           -7.938262    0             
iter:  67  16:07:53  -2.24           -7.938262    0             
iter:  68  16:08:09  -2.28           -7.938262    0             
iter:  69  16:08:25  -2.32           -7.938262    0             
iter:  70  16:08:41  -2.36           -7.938262    0             
iter:  71  16:08:57  -2.41           -7.938262    0             
iter:  72  16:09:14  -2.45           -7.938262    0             
iter:  73  16:09:30  -2.49           -7.938262    0             
iter:  74  16:09:46  -2.53           -7.938262    0             
iter:  75  16:10:02  -2.57           -7.938262    0             
iter:  76  16:10:18  -2.61           -7.938262    0             
iter:  77  16:10:34  -2.65           -7.938262    0             
iter:  78  16:10:51  -2.69           -7.938262    0             
iter:  79  16:11:07  -2.73           -7.938262    0             
iter:  80  16:11:23  -2.78           -7.938262    0             
iter:  81  16:11:39  -2.82           -7.938262    0             
iter:  82  16:11:56  -2.86           -7.938262    0             
iter:  83  16:12:12  -2.90           -7.938262    0             
iter:  84  16:12:28  -2.94           -7.938262    0             
iter:  85  16:12:44  -2.98           -7.938262    0             
iter:  86  16:13:00  -3.02           -7.938262    0             
iter:  87  16:13:16  -3.06           -7.938262    0             
iter:  88  16:13:33  -3.11           -7.938262    0             
iter:  89  16:13:49  -3.15           -7.938262    0             
iter:  90  16:14:05  -3.19           -7.938262    0             
iter:  91  16:14:21  -3.23           -7.938262    0             
iter:  92  16:14:37  -3.27           -7.938262    0             
iter:  93  16:14:54  -3.31           -7.938262    0             
iter:  94  16:15:10  -3.36           -7.938262    0             
iter:  95  16:15:26  -3.40           -7.938262    0             
iter:  96  16:15:42  -3.44           -7.938262    0             
iter:  97  16:15:59  -3.48           -7.938262    0             
iter:  98  16:16:15  -3.52           -7.938262    0             
iter:  99  16:16:31  -3.57           -7.938262    0             
iter: 100  16:16:47  -3.61           -7.938262    0             
iter: 101  16:17:03  -3.65           -7.938262    0             
iter: 102  16:17:19  -3.69           -7.938262    0             
iter: 103  16:17:36  -3.73           -7.938262    0             
iter: 104  16:17:52  -3.78           -7.938262    0             
iter: 105  16:18:08  -3.82           -7.938262    0             
iter: 106  16:18:24  -3.86           -7.938262    0             
iter: 107  16:18:41  -3.90           -7.938262    0             
iter: 108  16:18:57  -3.94           -7.938262    0             
iter: 109  16:19:13  -3.99           -7.938262    0             
iter: 110  16:19:30  -4.03           -7.938262    0             
iter: 111  16:19:46  -4.07           -7.938262    0             
iter: 112  16:20:02  -4.11           -7.938262    0             
iter: 113  16:20:19  -4.15           -7.938262    0             
iter: 114  16:20:35  -4.19           -7.938262    0             
iter: 115  16:20:51  -4.24           -7.938262    0             
iter: 116  16:21:08  -4.28           -7.938262    0             
iter: 117  16:21:24  -4.32           -7.938262    0             
iter: 118  16:21:40  -4.37           -7.938262    0             
iter: 119  16:21:56  -4.40           -7.938262    0             
iter: 120  16:22:13  -4.45           -7.938262    0             
iter: 121  16:22:29  -4.49           -7.938262    0             
iter: 122  16:22:45  -4.53           -7.938262    0             
iter: 123  16:23:01  -4.58           -7.938262    0             
iter: 124  16:23:18  -4.62           -7.938262    0             
iter: 125  16:23:34  -4.66           -7.938262    0             
iter: 126  16:23:50  -4.70           -7.938262    0             
iter: 127  16:24:06  -4.74           -7.938262    0             
iter: 128  16:24:23  -4.78           -7.938262    0             
iter: 129  16:24:39  -4.83           -7.938262    0             
iter: 130  16:24:55  -4.87           -7.938262    0             
iter: 131  16:25:11  -4.91           -7.938262    0             
iter: 132  16:25:27  -4.95           -7.938262    0             
iter: 133  16:25:43  -5.00           -7.938262    0             
iter: 134  16:26:00  -5.04           -7.938262    0             
iter: 135  16:26:16  -5.08           -7.938262    0             
iter: 136  16:26:32  -5.12           -7.938262    0             
iter: 137  16:26:48  -5.16           -7.938262    0             
iter: 138  16:27:04  -5.21           -7.938262    0             
iter: 139  16:27:21  -5.25           -7.938262    0             
iter: 140  16:27:37  -5.29           -7.938262    0             
iter: 141  16:27:53  -5.33           -7.938262    0             
iter: 142  16:28:09  -5.37           -7.938262    0             
iter: 143  16:28:25  -5.41           -7.938262    0             
iter: 144  16:28:42  -5.45           -7.938262    0             
iter: 145  16:28:58  -5.50           -7.938262    0             
iter: 146  16:29:14  -5.54           -7.938262    0             
iter: 147  16:29:30  -5.58           -7.938262    0             
iter: 148  16:29:46  -5.62           -7.938262    0             
iter: 149  16:30:02  -5.66           -7.938262    0             
iter: 150  16:30:18  -5.71           -7.938262    0             
iter: 151  16:30:35  -5.75           -7.938262    0             
iter: 152  16:30:51  -5.79           -7.938262    0             
iter: 153  16:31:07  -5.83           -7.938262    0             
iter: 154  16:31:23  -5.87           -7.938262    0             
iter: 155  16:31:39  -5.92           -7.938262    0             
iter: 156  16:31:55  -5.96           -7.938262    0             
iter: 157  16:32:11  -6.00           -7.938262    0             
iter: 158  16:32:27  -6.04           -7.938262    0             
iter: 159  16:32:44  -6.08           -7.938262    0             
iter: 160  16:33:00  -6.13           -7.938262    0             
iter: 161  16:33:16  -6.17           -7.938262    0             
iter: 162  16:33:32  -6.21           -7.938262    0             
iter: 163  16:33:48  -6.25           -7.938262    0             
iter: 164  16:34:05  -6.29           -7.938262    0             
iter: 165  16:34:21  -6.33           -7.938262    0             
iter: 166  16:34:37  -6.37           -7.938262    0             
iter: 167  16:34:53  -6.42           -7.938262    0             
iter: 168  16:35:09  -6.46           -7.938262    0             
iter: 169  16:35:25  -6.50           -7.938262    0             
iter: 170  16:35:42  -6.54           -7.938262    0             
iter: 171  16:35:58  -6.58           -7.938262    0             
iter: 172  16:36:14  -6.63           -7.938262    0             
iter: 173  16:36:30  -6.67           -7.938262    0             
iter: 174  16:36:47  -6.71           -7.938262    0             
iter: 175  16:37:03  -6.75           -7.938262    0             
iter: 176  16:37:19  -6.79           -7.938262    0             
iter: 177  16:37:35  -6.84           -7.938262    0             
iter: 178  16:37:51  -6.88           -7.938262    0             
iter: 179  16:38:08  -6.92           -7.938262    0             
iter: 180  16:38:24  -6.96           -7.938262    0             
iter: 181  16:38:40  -7.00           -7.938262    0             
iter: 182  16:38:56  -7.05           -7.938262    0             
iter: 183  16:39:12  -7.09           -7.938262    0             
iter: 184  16:39:29  -7.13           -7.938262    0             
iter: 185  16:39:45  -7.17           -7.938262    0             
iter: 186  16:40:01  -7.21           -7.938262    0             
iter: 187  16:40:17  -7.26           -7.938262    0             
iter: 188  16:40:33  -7.30           -7.938262    0             
iter: 189  16:40:49  -7.34           -7.938262    0             
iter: 190  16:41:04  -7.38           -7.938262    0             
iter: 191  16:41:17  -7.42           -7.938262    0             

Converged after 191 iterations.

Dipole moment: (-0.000640, 0.001030, 0.001884) |e|*Ang

Energy contributions relative to reference atoms: (reference = -35189.668405)

Kinetic:        +16.693179
Potential:      -15.040537
External:        +0.000000
XC:              -9.569194
Entropy (-ST):   +0.000000
Local:           -0.021710
--------------------------
Free energy:     -7.938262
Extrapolated:    -7.938262

 Band  Eigenvalues  Occupancy
    0     -4.72019    2.00000
    1     -3.51352    2.00000
    2     -3.13979    2.00000
    3     -3.12979    2.00000
    4     -1.98258    0.00000
    5     -1.85981    0.00000
    6     -1.85275    0.00000
    7     -1.63060    0.00000
    8     -1.50664    0.00000
    9     -1.38210    0.00000
   10     -0.70968    0.00000
   11     -0.54119    0.00000
   12     -0.53436    0.00000
   13     -0.41214    0.00000
   14     -0.36083    0.00000
   15     -0.26638    0.00000
   16     -0.25793    0.00000
   17     -0.20460    0.00000
   18      0.14551    0.00000
   19      0.14832    0.00000
   20      0.26715    0.00000
   21      0.40038    0.00000
   22      0.40637    0.00000
   23      0.51390    0.00000
   24      0.51765    0.00000
   25      0.61629    0.00000
   26      0.69720    0.00000
   27      0.81946    0.00000
   28      0.82959    0.00000
   29      0.89982    0.00000
   30      0.90377    0.00000
   31      0.92180    0.00000
   32      0.94485    0.00000
   33      0.96428    0.00000
   34      1.02247    0.00000
   35      1.06428    0.00000
   36      1.06846    0.00000
   37      1.12257    0.00000
   38      1.14425    0.00000
   39      1.14592    0.00000
   40      1.16402    0.00000
   41      1.21426    0.00000
   42      1.25713    0.00000
   43      1.45938    0.00000
   44      1.47331    0.00000
   45      1.51252    0.00000
   46      1.52004    0.00000
   47      1.52179    0.00000
   48      1.55239    0.00000
   49      1.69578    0.00000
   50      1.71600    0.00000
   51      1.72229    0.00000
   52      1.72976    0.00000
   53      1.75721    0.00000
   54      1.78971    0.00000
   55      1.79678    0.00000
   56      1.83499    0.00000
   57      1.85397    0.00000
   58      1.86897    0.00000
   59      1.91867    0.00000
   60      1.93384    0.00000
   61      1.94139    0.00000
   62      1.97836    0.00000
   63      2.03884    0.00000
   64      2.04342    0.00000
   65      2.07523    0.00000
   66      2.09103    0.00000
   67      2.11091    0.00000
   68      2.12420    0.00000
   69      2.21643    0.00000
   70      2.23572    0.00000
   71      2.25269    0.00000
   72      2.27053    0.00000
   73      2.29837    0.00000
   74      2.40072    0.00000
   75      2.41412    0.00000
   76      2.42936    0.00000
   77      2.45960    0.00000
   78      2.49352    0.00000
   79      2.52313    0.00000
   80      2.53798    0.00000
   81      2.56542    0.00000
   82      2.57983    0.00000
   83      2.61350    0.00000
   84      2.64933    0.00000
   85      2.66003    0.00000
   86      2.70259    0.00000
   87      2.71263    0.00000
   88      2.75220    0.00000
   89      2.75744    0.00000
   90      2.78603    0.00000
   91      2.78885    0.00000
   92      2.79933    0.00000
   93      2.82408    0.00000
   94      2.83243    0.00000
   95      2.84696    0.00000
   96      2.85220    0.00000
   97      2.89908    0.00000
   98      2.95425    0.00000
   99      2.95715    0.00000
  100      2.98901    0.00000
  101      3.01428    0.00000
  102      3.03341    0.00000
  103      3.11416    0.00000
  104      3.11859    0.00000
  105      3.12448    0.00000
  106      3.13625    0.00000
  107      3.17200    0.00000
  108      3.20781    0.00000
  109      3.27086    0.00000

Writing to Na_110n.gpw (mode='all')

Timing:                              incl.     excl.
-----------------------------------------------------------
Hamiltonian:                         1.355     0.000   0.0% |
 Atomic:                             0.144     0.001   0.0% |
  XC Correction:                     0.143     0.143   0.0% |
 Calculate atomic Hamiltonians:      0.006     0.006   0.0% |
 Communicate:                        0.000     0.000   0.0% |
 Hartree integrate/restrict:         0.059     0.059   0.0% |
 Poisson:                            0.454     0.030   0.0% |
  Communicate bwd 0:                 0.042     0.042   0.0% |
  Communicate bwd 1:                 0.030     0.030   0.0% |
  Communicate fwd 0:                 0.042     0.042   0.0% |
  Communicate fwd 1:                 0.060     0.060   0.0% |
  fft:                               0.058     0.058   0.0% |
  fft2:                              0.192     0.192   0.0% |
 XC 3D grid:                         0.678     0.678   0.0% |
 vbar:                               0.013     0.013   0.0% |
LCAO initialization:                 0.851     0.651   0.0% |
 LCAO eigensolver:                   0.036     0.000   0.0% |
  Calculate projections:             0.000     0.000   0.0% |
  DenseAtomicCorrection:             0.000     0.000   0.0% |
  Distribute overlap matrix:         0.000     0.000   0.0% |
  Orbital Layouts:                   0.023     0.023   0.0% |
  Potential matrix:                  0.013     0.013   0.0% |
 LCAO to grid:                       0.129     0.129   0.0% |
 Set positions (LCAO WFS):           0.034     0.008   0.0% |
  Basic WFS set positions:           0.000     0.000   0.0% |
  Basis functions set positions:     0.000     0.000   0.0% |
  P tci:                             0.019     0.019   0.0% |
  ST tci:                            0.005     0.005   0.0% |
  mktci:                             0.002     0.002   0.0% |
Redistribute:                        0.000     0.000   0.0% |
SCF-cycle:                        3090.225     0.115   0.0% |
 Davidson:                        3089.420  1263.459  40.8% |---------------|
  Apply hamiltonian:               245.717   245.717   7.9% |--|
  Subspace diag:                   428.383     0.029   0.0% |
   calc_h_matrix:                  305.862    59.893   1.9% ||
    Apply hamiltonian:             245.969   245.969   7.9% |--|
   diagonalize:                      0.402     0.402   0.0% |
   rotate_psi:                     122.090   122.090   3.9% |-|
  calc. matrices:                  904.053   411.250  13.3% |----|
   Apply hamiltonian:              492.803   492.803  15.9% |-----|
  diagonalize:                       3.413     3.413   0.1% |
  rotate_psi:                      244.395   244.395   7.9% |--|
 Orthonormalize:                     0.691     0.000   0.0% |
  calc_s_matrix:                     0.177     0.177   0.0% |
  inverse-cholesky:                  0.003     0.003   0.0% |
  projections:                       0.044     0.044   0.0% |
  rotate_psi_s:                      0.466     0.466   0.0% |
Set symmetry:                        0.002     0.002   0.0% |
Other:                               7.329     7.329   0.2% |
-----------------------------------------------------------
Total:                                      3099.763 100.0%

Date: Thu Feb 18 16:41:17 2021

