iter:  70  16:30:16     2100.00       -7.938261     -14.7         58
iter:  80  16:30:21     2400.00       -7.938261     -15.2         58
iter:  90  16:30:26     2700.00       -7.938261     -14.9         59
Writing to be_td_y.gpw (mode='all')

Wrote restart file.
100  iterations done. Current time is  2999.9999999999986  as.
iter: 100  16:30:31     3000.00       -7.938261     -14.8         65

  ___ ___ ___ _ _ _  
 |   |   |_  | | | | 
 | | | | | . | | | | 
 |__ |  _|___|_____|  20.1.0
 |___|_|             

User:   eliasel@hebbe22-10
Date:   Fri Feb 19 16:30:33 2021
Arch:   x86_64
Pid:    23771
Python: 3.7.4
gpaw:   /apps/Hebbe7/software/MPI/intel/2019.5.281/impi/2018.5.288/GPAW/20.1.0-Python-3.7.4/lib/python3.7/site-packages/gpaw
_gpaw:  /apps/Hebbe7/software/MPI/intel/2019.5.281/impi/2018.5.288/GPAW/20.1.0-Python-3.7.4/lib/python3.7/site-packages/
        _gpaw.cpython-37m-x86_64-linux-gnu.so
ase:    /apps/Hebbe7/software/MPI/intel/2019.5.281/impi/2018.5.288/ASE/3.19.0-Python-3.7.4/lib/python3.7/site-packages/ase (version 3.19.0)
numpy:  /apps/Hebbe7/software/MPI/intel/2019.5.281/impi/2018.5.288/SciPy-bundle/2019.10-Python-3.7.4/lib/python3.7/site-packages/numpy (version 1.17.3)
scipy:  /apps/Hebbe7/software/MPI/intel/2019.5.281/impi/2018.5.288/SciPy-bundle/2019.10-Python-3.7.4/lib/python3.7/site-packages/scipy (version 1.3.1)
libxc:  4.3.4
units:  Angstrom and eV
cores: 40
OMP_NUM_THREADS: 1

Reading from gsNa8.gpw
Read dipole, energy, free_energy
Reading input parameters:
  h: 0.3
  nbands: 0
  setups: {Na: 1}

Initialize ...

Na-setup:
  name: Sodium
  id: fa5c50181d04022fed15b2593599c257
  Z: 11
  valence: 1
  core: 10
  charge: 0.0
  file: /apps/Hebbe7/software/Core/GPAW-setups/0.9.20000/Na.1.LDA.gz
  compensation charges: gauss, rc=0.43, lmax=2
  cutoffs: 2.36(filt), 3.60(core),
  valence states:
                energy  radius
    3s(1.00)    -2.819   1.349
    3p(0.00)    -0.774   1.349
    *s          24.392   1.349

  Using partial waves for Na as LCAO basis

Reference energy: -35189.668405

Spin-paired calculation

Occupation numbers:
  Fermi-Dirac: width=0.0000 eV

Convergence criteria:
  Maximum total energy change: 0.0005 eV / electron
  Maximum integral of absolute density change: 0.0001 electrons
  Maximum integral of absolute eigenstate change: 4e-08 eV^2
  Maximum number of iterations: 333

Symmetries present (total): 1

  ( 1  0  0)
  ( 0  1  0)
  ( 0  0  1)

1 k-point (Gamma)
1 k-point in the irreducible part of the Brillouin zone
       k-points in crystal coordinates                weights
   0:     0.00000000    0.00000000    0.00000000          1/1

Wave functions: Uniform real-space grid
  Kinetic energy operator: 6*3+1=19 point O(h^6) finite-difference Laplacian
  ScaLapack parameters: grid=1x1, blocksize=None
  Wavefunction extrapolation:
    Wavefunctions kept unchanged if atoms move 

Eigensolver
   Davidson(niter=2, smin=None, normalize=True) 

Densities:
  Coarse grid: 68*68*72 grid
  Fine grid: 136*136*144 grid
  Total Charge: 0.000000 

No density mixing

Hamiltonian:
  XC and Coulomb potentials evaluated on a 136*136*144 grid
  Using the LDA Exchange-Correlation functional
  Interpolation: tri-quintic (5. degree polynomial)
  Poisson solver: FastPoissonSolver using
    6*3+1=19 point O(h^6) finite-difference Laplacian stencil;
    FFT axes: [];
    FST axes: [0, 1, 2].
 

Memory estimate:
  Process memory now: 99.23 MiB
  Calculator: 4.41 MiB
    Density: 1.89 MiB
      Arrays: 1.53 MiB
      Localized functions: 0.36 MiB
      Mixer: 0.00 MiB
    Hamiltonian: 1.03 MiB
      Arrays: 1.00 MiB
      XC: 0.00 MiB
      Poisson: 0.00 MiB
      vbar: 0.03 MiB
    Wavefunctions: 1.49 MiB
      Arrays psit_nG: 0.45 MiB
      Eigensolver: 1.02 MiB
      Projections: 0.00 MiB
      Projectors: 0.02 MiB

Total number of cores used: 40
Domain decomposition: 2 x 4 x 5

Number of atoms: 8
Number of atomic orbitals: 32
Number of bands in calculation: 4
Number of valence electrons: 8
Bands to converge: occupied

... initialized

Initializing position-dependent things.

Density initialized from wave functions
             .------------------------------------------------.  
            /|                                                |  
           / |                                                |  
          /  |                                                |  
         /   |                                                |  
        /    |                                                |  
       /     |                                                |  
      /      |                                                |  
     /       |                                                |  
    /        |                                                |  
   /         |                                                |  
  /          |                                                |  
 *           |                                                |  
 |           |                                                |  
 |           |                                                |  
 |           |                      Na                        |  
 |           |             Na                                 |  
 |           |                Na                              |  
 |           |                                                |  
 |           |                   Na  Na                       |  
 |           |            Na                                  |  
 |           |                                                |  
 |           |                Na                              |  
 |           |                   Na                           |  
 |           |                                                |  
 |           |                                                |  
 |           .------------------------------------------------.  
 |          /                                                /   
 |         /                                                /    
 |        /                                                /     
 |       /                                                /      
 |      /                                                /       
 |     /                                                /        
 |    /                                                /         
 |   /                                                /          
 |  /                                                /           
 | /                                                /            
 |/                                                /             
 *------------------------------------------------*              

Positions:
   0 Na    11.144626    8.090647   11.876539    ( 0.0000,  0.0000,  0.0000)
   1 Na    10.977844    8.000000    8.614803    ( 0.0000,  0.0000,  0.0000)
   2 Na    11.397682   11.261714   13.134418    ( 0.0000,  0.0000,  0.0000)
   3 Na    12.011229   10.994755    9.947283    ( 0.0000,  0.0000,  0.0000)
   4 Na     8.333340    9.460341   13.327794    ( 0.0000,  0.0000,  0.0000)
   5 Na     9.175418   10.970944    8.000000    ( 0.0000,  0.0000,  0.0000)
   6 Na     8.756920   12.012941   11.065977    ( 0.0000,  0.0000,  0.0000)
   7 Na     8.000000    8.603132   10.209496    ( 0.0000,  0.0000,  0.0000)



------------------------------------------
  Time-propagation TDDFT                  
------------------------------------------

Charge epsilon:  1e-05
Solver:  CSCG
Preconditioner:  None
Propagator:  SICN
States per processor =  4
Delta kick =  [1e-05, 0.0, 0.0]

Starting time:    0.00 as
Time step:       30.00 as

                        Simulation     Total         log10     Iterations:
             Time          time        Energy (eV)   Norm      Propagator
iter:   0  16:30:35        0.00       -7.938261     -15.3          0
iter: 110  16:30:36     3300.00       -7.938261     -14.6         65
iter:  10  16:30:40      300.00       -7.938261     -15.5         63
iter: 120  16:30:41     3600.00       -7.938261     -15.7         59
iter:  20  16:30:46      600.00       -7.938261     -14.5         64
iter: 130  16:30:47     3900.00       -7.938261     -15.2         59
iter:  30  16:30:51      900.00       -7.938261     -15.1         56
iter: 140  16:30:52     4200.00       -7.938261     -14.5         58
iter:  40  16:30:56     1200.00       -7.938261     -15.4         58
iter: 150  16:30:57     4500.00       -7.938261     -14.9         59
iter:  50  16:31:01     1500.00       -7.938261     -14.8         58
iter: 160  16:31:02     4800.00       -7.938261     -15.3         59
iter:  60  16:31:06     1800.00       -7.938261     -14.6         58
iter: 170  16:31:07     5100.00       -7.938261     -15.0         58
iter:  70  16:31:11     2100.00       -7.938261     -15.4         58
iter: 180  16:31:12     5400.00       -7.938261     -15.0         59
iter:  80  16:31:17     2400.00       -7.938261     -14.4         58
iter: 190  16:31:17     5700.00       -7.938261     -14.8         58
iter:  90  16:31:22     2700.00       -7.938261     -15.6         59
Writing to be_td_y.gpw (mode='all')

Wrote restart file.
200  iterations done. Current time is  6000.00000000003  as.
iter: 200  16:31:22     6000.00       -7.938261     -15.3         58
Writing to be_td_x.gpw (mode='all')

Wrote restart file.
100  iterations done. Current time is  2999.9999999999986  as.
iter: 100  16:31:27     3000.00       -7.938261     -15.0         65
iter: 210  16:31:28     6300.00       -7.938261     -14.8         65
iter: 110  16:31:32     3300.00       -7.938261     -15.8         65
iter: 220  16:31:33     6600.00       -7.938261     -14.8         58
iter: 120  16:31:38     3600.00       -7.938261     -15.0         59
iter: 230  16:31:38     6900.00       -7.938261     -14.4         65
iter: 130  16:31:43     3900.00       -7.938261     -14.6         65
iter: 240  16:31:43     7200.00       -7.938261     -14.4         58
iter: 140  16:31:48     4200.00       -7.938261     -15.1         58
iter: 250  16:31:48     7500.00       -7.938261     -15.0         58
iter: 260  16:31:53     7800.00       -7.938261     -14.3         58
iter: 150  16:31:53     4500.00       -7.938261     -14.9         59
iter: 270  16:31:58     8100.00       -7.938260     -15.6         57
iter: 160  16:31:58     4800.00       -7.938261     -15.0         59
iter: 280  16:32:03     8400.00       -7.938260     -14.6         59
iter: 170  16:32:04     5100.00       -7.938261     -14.9         58
iter: 290  16:32:09     8700.00       -7.938260     -14.7         59
iter: 180  16:32:09     5400.00       -7.938261     -15.3         59
Writing to be_td_y.gpw (mode='all')

Wrote restart file.
300  iterations done. Current time is  9000.0  as.
iter: 300  16:32:14     9000.00       -7.938261     -15.4         58
iter: 190  16:32:14     5700.00       -7.938261     -14.8         58
iter: 310  16:32:19     9300.00       -7.938261     -15.3         58
Writing to be_td_x.gpw (mode='all')

Wrote restart file.
200  iterations done. Current time is  6000.00000000003  as.
iter: 200  16:32:19     6000.00       -7.938261     -14.8         58
iter: 320  16:32:24     9600.00       -7.938260     -14.6         59
iter: 210  16:32:25     6300.00       -7.938261     -14.4         65
iter: 330  16:32:29     9900.00       -7.938260     -15.0         65
iter: 220  16:32:30     6600.00       -7.938261     -14.8         58
iter: 340  16:32:35    10200.00       -7.938260     -14.8         62
iter: 230  16:32:35     6900.00       -7.938261     -15.4         65
iter: 350  16:32:40    10500.00       -7.938260     -14.9         57
iter: 240  16:32:41     7200.00       -7.938261     -14.8         59
iter: 360  16:32:45    10800.00       -7.938260     -14.6         53
iter: 250  16:32:46     7500.00       -7.938261     -15.3         57
iter: 370  16:32:50    11100.00       -7.938260     -15.1         58
iter: 260  16:32:51     7800.00       -7.938261     -15.2         58
iter: 380  16:32:55    11400.00       -7.938260     -14.7         58
iter: 270  16:32:56     8100.00       -7.938260     -14.8         58
iter: 390  16:33:00    11700.00       -7.938260     -14.5         63
iter: 280  16:33:01     8400.00       -7.938260     -15.4         58
Writing to be_td_y.gpw (mode='all')

Wrote restart file.
400  iterations done. Current time is  11999.999999999964  as.
iter: 400  16:33:05    12000.00       -7.938260     -14.8         58
iter: 290  16:33:07     8700.00       -7.938260     -15.6         59
iter: 410  16:33:10    12300.00       -7.938260     -14.9         58
Writing to be_td_x.gpw (mode='all')

Wrote restart file.
300  iterations done. Current time is  9000.0  as.
iter: 300  16:33:12     9000.00       -7.938260     -14.5         58
iter: 420  16:33:15    12600.00       -7.938260     -14.7         58
iter: 310  16:33:17     9300.00       -7.938260     -14.5         62
iter: 430  16:33:20    12900.00       -7.938260     -14.5         58
iter: 320  16:33:22     9600.00       -7.938260     -14.5         58
iter: 440  16:33:25    13200.00       -7.938260     -15.1         63
iter: 330  16:33:28     9900.00       -7.938260     -14.3         63
iter: 450  16:33:30    13500.00       -7.938260     -14.7         59
iter: 340  16:33:33    10200.00       -7.938260     -16.0         62
iter: 460  16:33:36    13800.00       -7.938260     -14.9         59
iter: 350  16:33:38    10500.00       -7.938260     -14.9         57
iter: 470  16:33:41    14100.00       -7.938260     -14.6         59
iter: 360  16:33:44    10800.00       -7.938260     -15.0         58
iter: 480  16:33:46    14400.00       -7.938261     -15.4         58
iter: 370  16:33:49    11100.00       -7.938260     -14.8         58
iter: 490  16:33:51    14700.00       -7.938261     -14.7         59
iter: 380  16:33:55    11400.00       -7.938260     -15.3         58
Writing to be_td_y.gpw (mode='all')

Wrote restart file.
500  iterations done. Current time is  15000.000000000047  as.
iter: 500  16:33:57    15000.00       -7.938261     -14.9         59
iter: 390  16:34:01    11700.00       -7.938260     -15.3         63
iter: 510  16:34:02    15300.00       -7.938260     -14.4         58
Writing to be_td_x.gpw (mode='all')

Wrote restart file.
400  iterations done. Current time is  11999.999999999964  as.
iter: 400  16:34:06    12000.00       -7.938260     -15.4         58
iter: 520  16:34:07    15600.00       -7.938260     -15.5         59
iter: 410  16:34:11    12300.00       -7.938260     -15.7         58
iter: 530  16:34:12    15900.00       -7.938260     -14.8         58
iter: 420  16:34:16    12600.00       -7.938260     -15.0         58
iter: 540  16:34:17    16200.00       -7.938260     -15.3         59
iter: 430  16:34:21    12900.00       -7.938260     -14.9         58
iter: 550  16:34:22    16500.00       -7.938260     -14.9         59
iter: 440  16:34:27    13200.00       -7.938260     -15.4         63
iter: 560  16:34:27    16800.00       -7.938260     -14.8         58
iter: 450  16:34:32    13500.00       -7.938260     -15.5         58
iter: 570  16:34:32    17100.00       -7.938260     -15.4         59
iter: 460  16:34:37    13800.00       -7.938260     -14.6         59
iter: 580  16:34:37    17400.00       -7.938260     -14.9         58
iter: 470  16:34:42    14100.00       -7.938260     -15.3         59
iter: 590  16:34:42    17700.00       -7.938260     -14.5         58
iter: 480  16:34:47    14400.00       -7.938260     -15.2         59
Writing to be_td_y.gpw (mode='all')

Wrote restart file.
600  iterations done. Current time is  18000.00000000015  as.
iter: 600  16:34:48    18000.00       -7.938260     -14.5         62
iter: 490  16:34:52    14700.00       -7.938260     -14.9         59
iter: 610  16:34:53    18300.00       -7.938259     -14.7         58
iter: 620  16:34:58    18600.00       -7.938259     -15.7         61
Writing to be_td_x.gpw (mode='all')

Wrote restart file.
500  iterations done. Current time is  15000.000000000047  as.
iter: 500  16:34:58    15000.00       -7.938260     -14.8         59
iter: 630  16:35:03    18900.00       -7.938260     -14.7         59
iter: 510  16:35:03    15300.00       -7.938260     -15.2         58
iter: 640  16:35:08    19200.00       -7.938260     -14.9         58
iter: 520  16:35:08    15600.00       -7.938260     -14.4         62
iter: 650  16:35:13    19500.00       -7.938260     -15.4         59
iter: 530  16:35:13    15900.00       -7.938260     -14.7         58
iter: 660  16:35:18    19800.00       -7.938260     -15.8         58
iter: 540  16:35:19    16200.00       -7.938260     -15.1         59
iter: 670  16:35:23    20100.00       -7.938260     -14.8         59
iter: 550  16:35:24    16500.00       -7.938260     -15.2         61
iter: 680  16:35:28    20400.00       -7.938260     -15.0         61
iter: 560  16:35:29    16800.00       -7.938260     -15.4         58
iter: 690  16:35:33    20700.00       -7.938260     -15.1         58
iter: 570  16:35:34    17100.00       -7.938260     -14.6         62
Writing to be_td_y.gpw (mode='all')

Wrote restart file.
700  iterations done. Current time is  21000.00000000025  as.
iter: 700  16:35:38    21000.00       -7.938260     -14.7         59
iter: 580  16:35:39    17400.00       -7.938260     -14.8         58
iter: 710  16:35:44    21300.00       -7.938260     -14.7         58
iter: 590  16:35:45    17700.00       -7.938260     -14.7         58
iter: 720  16:35:49    21600.00       -7.938260     -14.8         59
Writing to be_td_x.gpw (mode='all')

Wrote restart file.
600  iterations done. Current time is  18000.00000000015  as.
iter: 600  16:35:50    18000.00       -7.938260     -15.0         62
iter: 730  16:35:54    21900.00       -7.938260     -15.0         59
iter: 610  16:35:55    18300.00       -7.938260     -14.6         58
iter: 740  16:35:59    22200.00       -7.938260     -14.6         58
iter: 620  16:36:00    18600.00       -7.938260     -15.0         62
iter: 750  16:36:04    22500.00       -7.938260     -14.9         61
iter: 630  16:36:06    18900.00       -7.938260     -14.6         59
iter: 760  16:36:09    22800.00       -7.938260     -14.6         58
iter: 640  16:36:11    19200.00       -7.938260     -15.1         59
iter: 770  16:36:14    23100.00       -7.938260     -15.3         59
iter: 650  16:36:16    19500.00       -7.938260     -14.4         59
iter: 780  16:36:19    23400.00       -7.938260     -14.6         59
iter: 660  16:36:21    19800.00       -7.938260     -14.5         58
iter: 790  16:36:24    23700.00       -7.938260     -14.8         58
iter: 670  16:36:26    20100.00       -7.938261     -15.5         59
Writing to be_td_y.gpw (mode='all')

Wrote restart file.
800  iterations done. Current time is  24000.000000000353  as.
iter: 800  16:36:29    24000.00       -7.938260     -15.0         59
iter: 680  16:36:32    20400.00       -7.938261     -14.7         59
iter: 810  16:36:34    24300.00       -7.938260     -14.9         58
iter: 690  16:36:37    20700.00       -7.938260     -14.6         59
iter: 820  16:36:39    24600.00       -7.938260     -14.7         58
Writing to be_td_x.gpw (mode='all')

Wrote restart file.
700  iterations done. Current time is  21000.00000000025  as.
iter: 700  16:36:42    21000.00       -7.938261     -15.2         59
iter: 830  16:36:44    24900.00       -7.938260     -14.9         62
iter: 710  16:36:47    21300.00       -7.938261     -15.8         58
iter: 840  16:36:49    25200.00       -7.938260     -14.6         58
iter: 720  16:36:52    21600.00       -7.938261     -15.1         59
iter: 850  16:36:54    25500.00       -7.938260     -14.7         59
iter: 730  16:36:58    21900.00       -7.938261     -14.7         59
iter: 860  16:37:00    25800.00       -7.938260     -15.4         58
iter: 740  16:37:03    22200.00       -7.938261     -14.4         58
iter: 870  16:37:05    26100.00       -7.938260     -14.5         59
