potential:
potential:
potential:

  ___ ___ ___ _ _ _  
 |   |   |_  | | | | 
 | | | | | . | | | | 
 |__ |  _|___|_____|  20.10.0
 |___|_|             

User:   esve@hebbe04-8
Date:   Fri Mar 12 12:02:39 2021
Arch:   x86_64
Pid:    20914
Python: 3.7.4
potential:
potential:
potential:
potential:
potential:
potential:
potential:
potential:
potential:
potential:
potential:
potential:
potential:
potential:
potential:
potential:
gpaw:   /apps/Hebbe7/software/MPI/GCC/8.3.0/OpenMPI/3.1.4/GPAW/20.10.0-ASE-3.20.1-Python-3.7.4/lib/python3.7/site-packages/gpaw
_gpaw:  /apps/Hebbe7/software/MPI/GCC/8.3.0/OpenMPI/3.1.4/GPAW/20.10.0-ASE-3.20.1-Python-3.7.4/lib/python3.7/site-packages/
        _gpaw.cpython-37m-x86_64-linux-gnu.so
ase:    /apps/Hebbe7/software/MPI/GCC/8.3.0/OpenMPI/3.1.4/ASE/3.20.1-Python-3.7.4/lib/python3.7/site-packages/ase (version 3.20.1)
numpy:  /apps/Hebbe7/software/MPI/GCC/8.3.0/OpenMPI/3.1.4/SciPy-bundle/2019.10-Python-3.7.4/lib/python3.7/site-packages/numpy (version 1.17.3)
scipy:  /apps/Hebbe7/software/MPI/GCC/8.3.0/OpenMPI/3.1.4/SciPy-bundle/2019.10-Python-3.7.4/lib/python3.7/site-packages/scipy (version 1.3.1)
libxc:  4.3.4
units:  Angstrom and eV
cores: 20
OMP_NUM_THREADS: 1

Input parameters:
  kpts: [50 50 50]
  mode: {ecut: 300.0,
         gammacentered: False,
         name: pw}
  occupations: {fixmagmom: False,
                name: fermi-dirac,
                width: 0.01}
  random: True
  xc: PBE

potential:
System changes: positions, numbers, cell, pbc, initial_charges, initial_magmoms 

Initialize ...

Si-setup:
  name: Silicon
  id: ee77bee481871cc2cb65ac61239ccafa
  Z: 14.0
  valence: 4
  core: 10
  charge: 0.0
  file: /apps/Hebbe7/software/Core/GPAW-setups/0.9.20000/Si.PBE.gz
  compensation charges: gauss, rc=0.33, lmax=2
  cutoffs: 1.86(filt), 2.06(core),
  valence states:
                energy  radius
    3s(2.00)   -10.812   1.058
    3p(2.00)    -4.081   1.058
    *s          16.399   1.058
    *p          23.130   1.058
    *d           0.000   1.058

  Using partial waves for Si as LCAO basis

Reference energy: -15772.688500

Spin-paired calculation

Convergence criteria:
  Maximum total energy change: 0.0005 eV / electron
  Maximum integral of absolute density change: 0.0001 electrons
  Maximum integral of absolute eigenstate change: 4e-08 eV^2
  Maximum number of iterations: 333

Symmetries present (total): 24

  ( 1  0  0)  ( 1  0  0)  ( 1  0 -1)  ( 1  0 -1)  ( 1 -1  0)  ( 1 -1  0)
  ( 0  1  0)  ( 0  0  1)  ( 0  1 -1)  ( 0  0 -1)  ( 0 -1  1)  ( 0 -1  0)
  ( 0  0  1)  ( 0  1  0)  ( 0  0 -1)  ( 0  1 -1)  ( 0 -1  0)  ( 0 -1  1)

  ( 0  1  0)  ( 0  1  0)  ( 0  1 -1)  ( 0  1 -1)  ( 0  0  1)  ( 0  0  1)
  ( 1  0  0)  ( 0  0  1)  ( 1  0 -1)  ( 0  0 -1)  ( 1  0  0)  ( 0  1  0)
  ( 0  0  1)  ( 1  0  0)  ( 0  0 -1)  ( 1  0 -1)  ( 0  1  0)  ( 1  0  0)

  ( 0  0 -1)  ( 0  0 -1)  ( 0 -1  1)  ( 0 -1  1)  ( 0 -1  0)  ( 0 -1  0)
  ( 1  0 -1)  ( 0  1 -1)  ( 1 -1  0)  ( 0 -1  0)  ( 1 -1  0)  ( 0 -1  1)
  ( 0  1 -1)  ( 1  0 -1)  ( 0 -1  0)  ( 1 -1  0)  ( 0 -1  1)  ( 1 -1  0)

  (-1  1  0)  (-1  1  0)  (-1  0  1)  (-1  0  1)  (-1  0  0)  (-1  0  0)
  (-1  0  1)  (-1  0  0)  (-1  1  0)  (-1  0  0)  (-1  1  0)  (-1  0  1)
  (-1  0  0)  (-1  0  1)  (-1  0  0)  (-1  1  0)  (-1  0  1)  (-1  1  0)
Note: your k-points are not as symmetric as your crystal!

125000 k-points: 50 x 50 x 50 Monkhorst-Pack grid
11050 k-points in the irreducible part of the Brillouin zone
       k-points in crystal coordinates                weights
   0:     0.01000000    0.01000000   -0.01000000          6/125000
   1:     0.01000000    0.01000000    0.01000000          2/125000
   2:     0.03000000   -0.01000000   -0.01000000          6/125000
   3:     0.03000000    0.01000000   -0.03000000         12/125000
   4:     0.03000000    0.01000000   -0.01000000         12/125000
   5:     0.03000000    0.01000000    0.01000000          6/125000
   6:     0.03000000    0.03000000   -0.03000000          6/125000
   7:     0.03000000    0.03000000   -0.01000000          6/125000
   8:     0.03000000    0.03000000    0.01000000          6/125000
   9:     0.03000000    0.03000000    0.03000000          2/125000
          ...
11049:     0.49000000    0.49000000    0.49000000          2/125000

Wave functions: Plane wave expansion
  Cutoff energy: 300.000 eV
  Number of coefficients (min, max): 460, 495
  Pulay-stress correction: 0.000000 eV/Ang^3 (de/decut=0.000000)
  Using FFTW library
  ScaLapack parameters: grid=1x1, blocksize=None
  Wavefunction extrapolation:
    Improved wavefunction reuse through dual PAW basis 

  Fermi-Dirac: width=0.0100 eV

Eigensolver
   Davidson(niter=2, smin=None, normalize=True) 

Densities:
  Coarse grid: 16*16*16 grid
  Fine grid: 32*32*32 grid
  Total Charge: 0.000000 

Density mixing:
  Method: separate
  Backend: pulay
  Linear mixing parameter: 0.05
  Mixing with 5 old densities
  Damping of long wave oscillations: 50 

Hamiltonian:
  XC and Coulomb potentials evaluated on a 32*32*32 grid
  Using the PBE Exchange-Correlation functional
 

XC parameters: PBE with 2 nearest neighbor stencil

Memory estimate:
  Process memory now: 248.80 MiB
  Calculator: 70.30 MiB
    Density: 1.63 MiB
      Arrays: 0.81 MiB
      Localized functions: 0.50 MiB
      Mixer: 0.31 MiB
    Hamiltonian: 0.54 MiB
      Arrays: 0.53 MiB
      XC: 0.00 MiB
      Poisson: 0.00 MiB
      vbar: 0.01 MiB
    Wavefunctions: 68.13 MiB
      Arrays psit_nG: 33.35 MiB
      Eigensolver: 0.11 MiB
      Projections: 1.75 MiB
      Projectors: 28.59 MiB
      PW-descriptor: 4.33 MiB

Total number of cores used: 20
Parallelization over k-points: 20

Number of atoms: 2
Number of atomic orbitals: 8
Number of bands in calculation: 8
Number of valence electrons: 8
Bands to converge: occupied

... initialized

Initializing position-dependent things.

Density initialized from atomic densities
Creating initial wave functions:
  8 bands from LCAO basis set

                    
                    
                    
                    
           Si       
                    
       Si           
                    
                    
                    
                    

Positions:
   0 Si     0.000000    0.000000    0.000000    ( 0.0000,  0.0000,  0.0000)
   1 Si     1.357500    1.357500    1.357500    ( 0.0000,  0.0000,  0.0000)

Unit cell:
           periodic     x           y           z      points  spacing
  1. axis:    yes    0.000000    2.715000    2.715000    16     0.1959
  2. axis:    yes    2.715000    0.000000    2.715000    16     0.1959
  3. axis:    yes    2.715000    2.715000    0.000000    16     0.1959

  Lengths:   3.839590   3.839590   3.839590
  Angles:   60.000000  60.000000  60.000000

Effective grid spacing dv^(1/3) = 0.2138

                     log10-error:    total        iterations:
           time      wfs    density  energy       poisson
iter:   1  12:26:21                 -10.874888           
iter:   2  12:45:43  -1.95  -0.80   -10.875786           
iter:   3  13:05:05  -1.11  -0.81   -11.176267           
iter:   4  13:24:27  -2.13  -0.65   -10.834919           
