7
Lattice="16.0 0.0 0.0 0.0 16.0 0.0 0.0 0.0 16.0" Properties=species:S:1:pos:R:3:forces:R:3 energy=-5.740991924162594 dipole="0.03324381721312139 -0.015822979134920912 0.039738184943511036" free_energy=-5.775841866198025 pbc="F F F"
Na       6.17956785       6.69871497       6.28973952       0.05513431       0.03721972       0.03314861 
Na       8.74983781       5.07602705       7.79852619      -0.02003015       0.02752358       0.01927856 
Na       9.64750982       7.52075406       5.71568239       0.00528616      -0.02566192      -0.02257006 
Na       9.07707753      10.72070175       6.67567344      -0.01400709      -0.00495143      -0.02411709 
Na       6.05837058       9.77554748       7.84191699       0.00263568      -0.03187923       0.05633193 
Na       6.11216885       6.89633765       9.71249220       0.01160962       0.01267297      -0.06212547 
Na       9.15093151       8.32529725       8.97438552      -0.04060330      -0.01461050       0.00045889 
