
  ___ ___ ___ _ _ _  
 |   |   |_  | | | | 
 | | | | | . | | | | 
 |__ |  _|___|_____|  19.8.1
 |___|_|             

User:   eliasel@hebbe25-2
Date:   Thu Feb  4 18:29:03 2021
Arch:   x86_64
Pid:    4279
Python: 3.7.2
gpaw:   /apps/Hebbe7/software/MPI/intel/2019.1.144-GCC-8.2.0-2.31.1/impi/2018.4.274/GPAW/19.8.1-Python-3.7.2/lib/python3.7/site-packages/gpaw
_gpaw:  /apps/Hebbe7/software/MPI/intel/2019.1.144-GCC-8.2.0-2.31.1/impi/2018.4.274/GPAW/19.8.1-Python-3.7.2/lib/python3.7/site-packages/
        _gpaw.cpython-37m-x86_64-linux-gnu.so
ase:    /apps/Hebbe7/software/MPI/intel/2019.1.144-GCC-8.2.0-2.31.1/impi/2018.4.274/ASE/3.18.0-Python-3.7.2/lib/python3.7/site-packages/ase (version 3.18.0)
numpy:  /apps/Hebbe7/software/MPI/intel/2019.1.144-GCC-8.2.0-2.31.1/impi/2018.4.274/SciPy-bundle/2019.03/lib/python3.7/site-packages/numpy (version 1.16.2)
scipy:  /apps/Hebbe7/software/MPI/intel/2019.1.144-GCC-8.2.0-2.31.1/impi/2018.4.274/SciPy-bundle/2019.03/lib/python3.7/site-packages/scipy (version 1.2.1)
libxc:  4.3.4
units:  Angstrom and eV
cores:  1

Input parameters:
  basis: dzp
  h: 0.25
  mode: lcao
  nbands: 10
  occupations: {name: fermi-dirac,
                width: 0.05}
  setups: {Na: 1}

System changes: positions, numbers, cell, pbc, initial_charges, initial_magmoms 

Initialize ...

Na-setup:
  name: Sodium
  id: fa5c50181d04022fed15b2593599c257
  Z: 11
  valence: 1
  core: 10
  charge: 0.0
  file: /apps/Hebbe7/software/Core/GPAW-setups/0.9.20000/Na.1.LDA.gz
  compensation charges: gauss, rc=0.43, lmax=2
  cutoffs: 2.36(filt), 3.60(core),
  valence states:
                energy  radius
    3s(1.00)    -2.819   1.349
    3p(0.00)    -0.774   1.349
    *s          24.392   1.349

  LCAO basis set for Na:
    Name: 1.dzp
    File: /apps/Hebbe7/software/Core/GPAW-setups/0.9.20000/Na.1.dzp.basis.gz
    Number of radial functions: 3
    Number of spherical harmonics: 5
      l=0, rc=11.7656 Bohr: 3s-sz confined orbital
      l=0, rc=7.1094 Bohr: 3s-dz split-valence wave
      l=1, rc=11.7656 Bohr: p-type Gaussian polarization

Reference energy: -30790.959854

Spin-paired calculation

Occupation numbers:
  Fermi-Dirac: width=0.0500 eV

Convergence criteria:
  Maximum total energy change: 0.0005 eV / electron
  Maximum integral of absolute density change: 0.0001 electrons
  Maximum integral of absolute eigenstate change: 4e-08 eV^2
  Maximum number of iterations: 333

Symmetries present (total): 1

  ( 1  0  0)
  ( 0  1  0)
  ( 0  0  1)

1 k-point (Gamma)
1 k-point in the irreducible part of the Brillouin zone
       k-points in crystal coordinates                weights
   0:     0.00000000    0.00000000    0.00000000          1/1

Wave functions: LCAO
  Diagonalizer: Serial LAPACK
  Atomic Correction: dense with blas
  Datatype: float
 

Eigensolver
   LCAO using direct dense diagonalizer 

Densities:
  Coarse grid: 64*64*64 grid
  Fine grid: 128*128*128 grid
  Total Charge: 0.000000 

Density mixing:
  Method: separate
  Backend: pulay
  Linear mixing parameter: 0.25
  Mixing with 3 old densities
  No damping of long wave oscillations 

Hamiltonian:
  XC and Coulomb potentials evaluated on a 128*128*128 grid
  Using the LDA Exchange-Correlation functional
  Interpolation: tri-quintic (5. degree polynomial)
  Poisson solver: FastPoissonSolver using
    6*3+1=19 point O(h^6) finite-difference Laplacian stencil;
    FFT axes: [];
    FST axes: [0, 1, 2].
 

Memory estimate:
  Process memory now: 253.98 MiB
  Calculator: 132.36 MiB
    Density: 83.08 MiB
      Arrays: 50.70 MiB
      Localized functions: 20.93 MiB
      Mixer: 11.45 MiB
    Hamiltonian: 34.67 MiB
      Arrays: 33.16 MiB
      XC: 0.00 MiB
      Poisson: 0.00 MiB
      vbar: 1.51 MiB
    Wavefunctions: 14.61 MiB
      C [qnM]: 0.00 MiB
      S, T [2 x qmm]: 0.02 MiB
      P [aqMi]: 0.00 MiB
      BasisFunctions: 14.58 MiB
      Eigensolver: 0.00 MiB

Total number of cores used: 1

Number of atoms: 7
Number of atomic orbitals: 35
Number of bands in calculation: 10
Bands to converge: occupied states only
Number of valence electrons: 7

... initialized

Initializing position-dependent things.

Density initialized from atomic densities
           .--------------------------------------.  
          /|                                      |  
         / |                                      |  
        /  |                                      |  
       /   |                                      |  
      /    |                                      |  
     /     |                                      |  
    /      |                                      |  
   /       |                                      |  
  /        |                                      |  
 *         |                                      |  
 |         |                                      |  
 |         |                                      |  
 |         |                                      |  
 |         |           Na                         |  
 |         |           Na Na                      |  
 |         |                Naa                   |  
 |         |          Na Na                       |  
 |         |                                      |  
 |         |                                      |  
 |         .--------------------------------------.  
 |        /                                      /   
 |       /                                      /    
 |      /                                      /     
 |     /                                      /      
 |    /                                      /       
 |   /                                      /        
 |  /                                      /         
 | /                                      /          
 |/                                      /           
 *--------------------------------------*            

Positions:
   0 Na     7.000000    7.000000    7.000000    ( 0.0000,  0.0000,  0.0000)
   1 Na     8.000000    7.000000    7.000000    ( 0.0000,  0.0000,  0.0000)
   2 Na     9.000000    8.000000    7.000000    ( 0.0000,  0.0000,  0.0000)
   3 Na     9.000000    9.000000    7.000000    ( 0.0000,  0.0000,  0.0000)
   4 Na     7.000000    8.000000    8.000000    ( 0.0000,  0.0000,  0.0000)
   5 Na     7.000000    8.000000    9.000000    ( 0.0000,  0.0000,  0.0000)
   6 Na     8.000000    8.000000    8.000000    ( 0.0000,  0.0000,  0.0000)

Unit cell:
           periodic     x           y           z      points  spacing
  1. axis:    no    16.000000    0.000000    0.000000    64     0.2500
  2. axis:    no     0.000000   16.000000    0.000000    64     0.2500
  3. axis:    no     0.000000    0.000000   16.000000    64     0.2500

  Lengths:  16.000000  16.000000  16.000000
  Angles:   90.000000  90.000000  90.000000

Effective grid spacing dv^(1/3) = 0.2500

                     log10-error:    total        iterations:
           time      wfs    density  energy       fermi  poisson
iter:   1  18:29:07          +inf    69.840037    3      1      
iter:   2  18:29:08         -0.40    70.863591    34     1      
iter:   3  18:29:10         -0.62    71.237265    30     1      
iter:   4  18:29:11         -0.88    71.395997    6      1      
iter:   5  18:29:12         -1.18    71.423059    3      1      
iter:   6  18:29:13         -1.51    71.430109    4      1      
iter:   7  18:29:15         -1.85    71.430861    3      1      
iter:   8  18:29:16         -2.22    71.431018    3      1      
iter:   9  18:29:17         -2.43    71.431076    2      1      
iter:  10  18:29:18         -2.69    71.431107    2      1      
iter:  11  18:29:20         -3.04    71.431117    3      1      
iter:  12  18:29:21         -3.33    71.431121    3      1      
iter:  13  18:29:22         -3.53    71.431122    2      1      
iter:  14  18:29:23         -3.66    71.431122    2      1      
iter:  15  18:29:25         -3.84    71.431122    2      1      
iter:  16  18:29:26         -4.10    71.431122    2      1      

Converged after 16 iterations.

Dipole moment: (0.018272, 0.250318, 0.028692) |e|*Ang

Energy contributions relative to reference atoms: (reference = -30790.959854)

Kinetic:       +204.888875
Potential:     -109.519328
External:        +0.000000
XC:             -42.895769
Entropy (-ST):   -0.112421
Local:          +19.013554
--------------------------
Free energy:    +71.374912
Extrapolated:   +71.431122

Fermi level: -4.12642

 Band  Eigenvalues  Occupancy
    0     -5.68674    2.00000
    1     -4.78370    2.00000
    2     -4.18394    1.51917
    3     -4.17882    1.48084
    4     -1.82533    0.00000
    5     -1.43265    0.00000
    6     -0.85567    0.00000
    7     -0.29102    0.00000
    8      0.16751    0.00000
    9      1.16870    0.00000

Gap: 2.353 eV
Transition (v -> c):
  (s=0, k=0, n=3, [0.00, 0.00, 0.00]) -> (s=0, k=0, n=4, [0.00, 0.00, 0.00])

Forces in eV/Ang:
  0 Na  -26.43419  -10.58168   -9.89990
  1 Na   17.98315  -15.85514   -8.56838
  2 Na   15.28731  -15.63370   -6.73391
  3 Na    4.37012   27.59644   -3.43618
  4 Na  -24.94325    9.16541  -12.73765
  5 Na   -7.35498    0.55882   31.02795
  6 Na   21.09171    4.74965   10.34839

System changes: positions 

Initializing position-dependent things.

Density initialized from wave functions
           .--------------------------------------.  
          /|                                      |  
         / |                                      |  
        /  |                                      |  
       /   |                                      |  
      /    |                                      |  
     /     |                                      |  
    /      |                                      |  
   /       |                                      |  
  /        |                                      |  
 *         |                                      |  
 |         |                                      |  
 |         |                                      |  
 |         |                                      |  
 |         |           Na                         |  
 |         |           Na Na                      |  
 |         |                Naa                   |  
 |         |          Na Na                       |  
 |         |                                      |  
 |         |                                      |  
 |         .--------------------------------------.  
 |        /                                      /   
 |       /                                      /    
 |      /                                      /     
 |     /                                      /      
 |    /                                      /       
 |   /                                      /        
 |  /                                      /         
 | /                                      /          
 |/                                      /           
 *--------------------------------------*            

Positions:
   0 Na     6.855209    6.942040    6.945774    ( 0.0000,  0.0000,  0.0000)
   1 Na     8.098501    6.913155    6.953067    ( 0.0000,  0.0000,  0.0000)
   2 Na     9.083735    7.914368    6.963115    ( 0.0000,  0.0000,  0.0000)
   3 Na     9.023937    9.151158    6.981179    ( 0.0000,  0.0000,  0.0000)
   4 Na     6.863375    8.050203    7.930230    ( 0.0000,  0.0000,  0.0000)
   5 Na     6.959714    8.003061    9.169953    ( 0.0000,  0.0000,  0.0000)
   6 Na     8.115528    8.026016    8.056683    ( 0.0000,  0.0000,  0.0000)

Unit cell:
           periodic     x           y           z      points  spacing
  1. axis:    no    16.000000    0.000000    0.000000    64     0.2500
  2. axis:    no     0.000000   16.000000    0.000000    64     0.2500
  3. axis:    no     0.000000    0.000000   16.000000    64     0.2500

  Lengths:  16.000000  16.000000  16.000000
  Angles:   90.000000  90.000000  90.000000

Effective grid spacing dv^(1/3) = 0.2500

                     log10-error:    total        iterations:
           time      wfs    density  energy       fermi  poisson
iter:   1  18:29:28          +inf    47.110357    4      1      
iter:   2  18:29:29         -0.68    47.298174    4      1      
iter:   3  18:29:31         -0.93    47.360759    4      1      
iter:   4  18:29:32         -1.21    47.380026    3      1      
iter:   5  18:29:33         -1.74    47.380975    3      1      
iter:   6  18:29:34         -1.92    47.381566    4      1      
iter:   7  18:29:36         -2.51    47.381619    3      1      
iter:   8  18:29:37         -2.79    47.381615    2      1      
iter:   9  18:29:38         -3.02    47.381623    2      1      
iter:  10  18:29:39         -3.53    47.381621    2      1      
iter:  11  18:29:41         -3.80    47.381622    2      1      
iter:  12  18:29:42         -4.17    47.381621    2      1      

Converged after 12 iterations.

Dipole moment: (-0.043985, 0.226756, -0.037465) |e|*Ang

Energy contributions relative to reference atoms: (reference = -30790.959854)

Kinetic:       +188.750906
Potential:     -113.510816
External:        +0.000000
XC:             -38.229675
Entropy (-ST):   -0.112294
Local:          +10.427353
--------------------------
Free energy:    +47.325474
Extrapolated:   +47.381621

Fermi level: -3.98974

 Band  Eigenvalues  Occupancy
    0     -5.72894    2.00000
    1     -4.40884    1.99954
    2     -4.05192    1.55237
    3     -4.03797    1.44809
    4     -1.75162    0.00000
    5     -1.38364    0.00000
    6     -0.76216    0.00000
    7     -0.27930    0.00000
    8      0.14100    0.00000
    9      1.28780    0.00000

Gap: 2.286 eV
Transition (v -> c):
  (s=0, k=0, n=3, [0.00, 0.00, 0.00]) -> (s=0, k=0, n=4, [0.00, 0.00, 0.00])

Forces in eV/Ang:
  0 Na  -16.84018   -8.21836   -7.75612
  1 Na    8.64992  -14.12640   -5.84231
  2 Na   14.84930   -7.43385   -6.50011
  3 Na    2.61617   18.38538   -2.86211
  4 Na  -16.51926    8.55649   -7.51587
  5 Na   -3.84017   -0.18770   19.44442
  6 Na   11.08366    3.02494   11.03759

System changes: positions 

Initializing position-dependent things.

Density initialized from wave functions
           .--------------------------------------.  
          /|                                      |  
         / |                                      |  
        /  |                                      |  
       /   |                                      |  
      /    |                                      |  
     /     |                                      |  
    /      |                                      |  
   /       |                                      |  
  /        |                                      |  
 *         |                                      |  
 |         |                                      |  
 |         |                                      |  
 |         |           Na                         |  
 |         |                                      |  
 |         |           Na Na Na                   |  
 |         |                Na                    |  
 |         |          Na Na                       |  
 |         |                                      |  
 |         |                                      |  
 |         .--------------------------------------.  
 |        /                                      /   
 |       /                                      /    
 |      /                                      /     
 |     /                                      /      
 |    /                                      /       
 |   /                                      /        
 |  /                                      /         
 | /                                      /          
 |/                                      /           
 *--------------------------------------*            

Positions:
   0 Na     6.741538    6.889906    6.896698    ( 0.0000,  0.0000,  0.0000)
   1 Na     8.163234    6.826905    6.914500    ( 0.0000,  0.0000,  0.0000)
   2 Na     9.172412    7.858478    6.924238    ( 0.0000,  0.0000,  0.0000)
   3 Na     9.041976    9.273438    6.963381    ( 0.0000,  0.0000,  0.0000)
   4 Na     6.753293    8.101814    7.878145    ( 0.0000,  0.0000,  0.0000)
   5 Na     6.931881    8.003023    9.301931    ( 0.0000,  0.0000,  0.0000)
   6 Na     8.195663    8.046436    8.121135    ( 0.0000,  0.0000,  0.0000)

Unit cell:
           periodic     x           y           z      points  spacing
  1. axis:    no    16.000000    0.000000    0.000000    64     0.2500
  2. axis:    no     0.000000   16.000000    0.000000    64     0.2500
  3. axis:    no     0.000000    0.000000   16.000000    64     0.2500

  Lengths:  16.000000  16.000000  16.000000
  Angles:   90.000000  90.000000  90.000000

Effective grid spacing dv^(1/3) = 0.2500

                     log10-error:    total        iterations:
           time      wfs    density  energy       fermi  poisson
iter:   1  18:29:44          +inf    33.380426    4      1      
iter:   2  18:29:45         -0.77    33.525700    4      1      
iter:   3  18:29:47         -1.05    33.571370    4      1      
iter:   4  18:29:48         -1.37    33.580808    4      1      
iter:   5  18:29:49         -1.83    33.581410    4      1      
iter:   6  18:29:50         -2.11    33.581596    3      1      
iter:   7  18:29:52         -2.37    33.581607    3      1      
iter:   8  18:29:53         -2.80    33.581606    2      1      
iter:   9  18:29:54         -3.03    33.581592    2      1      
iter:  10  18:29:55         -3.40    33.581589    2      1      
iter:  11  18:29:57         -3.75    33.581588    2      1      
iter:  12  18:29:58         -3.98    33.581589    2      1      
iter:  13  18:29:59         -4.26    33.581589    2      1      

Converged after 13 iterations.

Dipole moment: (-0.112347, 0.172597, -0.058647) |e|*Ang

Energy contributions relative to reference atoms: (reference = -30790.959854)

Kinetic:       +181.260532
Potential:     -118.226521
External:        +0.000000
XC:             -35.366989
Entropy (-ST):   -0.114038
Local:           +5.971586
--------------------------
Free energy:    +33.524571
Extrapolated:   +33.581589

Fermi level: -3.84519

 Band  Eigenvalues  Occupancy
    0     -5.93261    2.00000
    1     -4.13400    1.99382
    2     -3.90562    1.54009
    3     -3.89569    1.46609
    4     -1.73333    0.00000
    5     -1.31166    0.00000
    6     -0.69620    0.00000
    7     -0.42766    0.00000
    8      0.07964    0.00000
    9      1.42413    0.00000

Gap: 2.162 eV
Transition (v -> c):
  (s=0, k=0, n=3, [0.00, 0.00, 0.00]) -> (s=0, k=0, n=4, [0.00, 0.00, 0.00])

Forces in eV/Ang:
  0 Na  -11.77470   -6.78232   -6.30549
  1 Na    4.40462  -12.41916   -4.33784
  2 Na   13.08833   -3.49780   -5.69125
  3 Na    1.61011   13.10718   -2.44549
  4 Na  -11.68514    7.84509   -4.47147
  5 Na   -2.65502   -0.47851   13.33184
  6 Na    7.01344    2.22047    9.92367

System changes: positions 

Initializing position-dependent things.

Density initialized from wave functions
           .--------------------------------------.  
          /|                                      |  
         / |                                      |  
        /  |                                      |  
       /   |                                      |  
      /    |                                      |  
     /     |                                      |  
    /      |                                      |  
   /       |                                      |  
  /        |                                      |  
 *         |                                      |  
 |         |                                      |  
 |         |                                      |  
 |         |           Na                         |  
 |         |                                      |  
 |         |          Na  Na Na                   |  
 |         |                                      |  
 |         |         Na  Na Na                    |  
 |         |                                      |  
 |         |                                      |  
 |         .--------------------------------------.  
 |        /                                      /   
 |       /                                      /    
 |      /                                      /     
 |     /                                      /      
 |    /                                      /       
 |   /                                      /        
 |  /                                      /         
 | /                                      /          
 |/                                      /           
 *--------------------------------------*            

Positions:
   0 Na     6.637931    6.835327    6.845623    ( 0.0000,  0.0000,  0.0000)
   1 Na     8.210236    6.730274    6.877583    ( 0.0000,  0.0000,  0.0000)
   2 Na     9.273835    7.819299    6.879997    ( 0.0000,  0.0000,  0.0000)
   3 Na     9.057172    9.387378    6.944063    ( 0.0000,  0.0000,  0.0000)
   4 Na     6.651286    8.161657    7.835119    ( 0.0000,  0.0000,  0.0000)
   5 Na     6.908098    8.000538    9.420519    ( 0.0000,  0.0000,  0.0000)
   6 Na     8.261443    8.065507    8.197154    ( 0.0000,  0.0000,  0.0000)

Unit cell:
           periodic     x           y           z      points  spacing
  1. axis:    no    16.000000    0.000000    0.000000    64     0.2500
  2. axis:    no     0.000000   16.000000    0.000000    64     0.2500
  3. axis:    no     0.000000    0.000000   16.000000    64     0.2500

  Lengths:  16.000000  16.000000  16.000000
  Angles:   90.000000  90.000000  90.000000

Effective grid spacing dv^(1/3) = 0.2500

                     log10-error:    total        iterations:
           time      wfs    density  energy       fermi  poisson
iter:   1  18:30:01          +inf    23.336463    4      1      
iter:   2  18:30:03         -0.85    23.451542    4      1      
iter:   3  18:30:04         -1.09    23.497793    4      1      
iter:   4  18:30:05         -1.49    23.501183    4      1      
iter:   5  18:30:06         -1.83    23.502494    4      1      
iter:   6  18:30:08         -2.27    23.502479    3      1      
iter:   7  18:30:09         -2.48    23.502457    3      1      
iter:   8  18:30:10         -3.05    23.502449    2      1      
iter:   9  18:30:11         -3.43    23.502456    2      1      
iter:  10  18:30:13         -3.77    23.502457    2      1      
iter:  11  18:30:14         -4.11    23.502458    2      1      

Converged after 11 iterations.

Dipole moment: (-0.147859, 0.120351, -0.037292) |e|*Ang

Energy contributions relative to reference atoms: (reference = -30790.959854)

Kinetic:       +171.754361
Potential:     -118.768931
External:        +0.000000
XC:             -32.750671
Entropy (-ST):   -0.102647
Local:           +3.319021
--------------------------
Free energy:    +23.451134
Extrapolated:   +23.502458

Fermi level: -3.65832

 Band  Eigenvalues  Occupancy
    0     -6.16757    2.00000
    1     -4.00672    1.99812
    2     -3.76157    1.77490
    3     -3.68143    1.22698
    4     -1.79211    0.00000
    5     -1.25834    0.00000
    6     -0.67277    0.00000
    7     -0.52651    0.00000
    8      0.15877    0.00000
    9      1.52889    0.00000

Gap: 1.889 eV
Transition (v -> c):
  (s=0, k=0, n=3, [0.00, 0.00, 0.00]) -> (s=0, k=0, n=4, [0.00, 0.00, 0.00])

Forces in eV/Ang:
  0 Na   -8.53602   -5.43411   -4.92457
  1 Na    2.45129  -10.35703   -3.22713
  2 Na   10.67745   -1.69314   -4.69291
  3 Na    0.90422    9.63380   -2.00205
  4 Na   -8.42257    6.82244   -2.90660
  5 Na   -2.10882   -0.59422    9.54706
  6 Na    5.03306    1.62161    8.20549

System changes: positions 

Initializing position-dependent things.

Density initialized from wave functions
           .--------------------------------------.  
          /|                                      |  
         / |                                      |  
        /  |                                      |  
       /   |                                      |  
      /    |                                      |  
     /     |                                      |  
    /      |                                      |  
   /       |                                      |  
  /        |                                      |  
 *         |                                      |  
 |         |                                      |  
 |         |                                      |  
 |         |           Na                         |  
 |         |                                      |  
 |         |          Na  Na Na                   |  
 |         |                                      |  
 |         |         Na  Na  Na                   |  
 |         |                                      |  
 |         |                                      |  
 |         .--------------------------------------.  
 |        /                                      /   
 |       /                                      /    
 |      /                                      /     
 |     /                                      /      
 |    /                                      /       
 |   /                                      /        
 |  /                                      /         
 | /                                      /          
 |/                                      /           
 *--------------------------------------*            

Positions:
   0 Na     6.543975    6.779485    6.794176    ( 0.0000,  0.0000,  0.0000)
   1 Na     8.242900    6.626517    6.842730    ( 0.0000,  0.0000,  0.0000)
   2 Na     9.382318    7.794206    6.832594    ( 0.0000,  0.0000,  0.0000)
   3 Na     9.069031    9.492494    6.923772    ( 0.0000,  0.0000,  0.0000)
   4 Na     6.558230    8.228235    7.800406    ( 0.0000,  0.0000,  0.0000)
   5 Na     6.886267    7.995820    9.526532    ( 0.0000,  0.0000,  0.0000)
   6 Na     8.317282    8.083199    8.279867    ( 0.0000,  0.0000,  0.0000)

Unit cell:
           periodic     x           y           z      points  spacing
  1. axis:    no    16.000000    0.000000    0.000000    64     0.2500
  2. axis:    no     0.000000   16.000000    0.000000    64     0.2500
  3. axis:    no     0.000000    0.000000   16.000000    64     0.2500

  Lengths:  16.000000  16.000000  16.000000
  Angles:   90.000000  90.000000  90.000000

Effective grid spacing dv^(1/3) = 0.2500

                     log10-error:    total        iterations:
           time      wfs    density  energy       fermi  poisson
iter:   1  18:30:16          +inf    15.930701    4      1      
iter:   2  18:30:17         -1.00    15.998536    4      1      
iter:   3  18:30:18         -1.25    16.024328    4      1      
iter:   4  18:30:20         -1.59    16.029899    4      1      
iter:   5  18:30:21         -2.21    16.030013    3      1      
iter:   6  18:30:22         -2.43    16.029925    3      1      
iter:   7  18:30:23         -2.91    16.029872    2      1      
iter:   8  18:30:25         -3.31    16.029876    2      1      
iter:   9  18:30:26         -3.56    16.029892    2      1      
iter:  10  18:30:27         -3.87    16.029898    2      1      
iter:  11  18:30:29         -4.18    16.029898    2      1      

Converged after 11 iterations.

Dipole moment: (-0.144249, 0.088323, -0.021219) |e|*Ang

Energy contributions relative to reference atoms: (reference = -30790.959854)

Kinetic:       +157.989131
Potential:     -113.607014
External:        +0.000000
XC:             -30.124934
Entropy (-ST):   -0.079718
Local:           +1.812574
--------------------------
Free energy:    +15.990039
Extrapolated:   +16.029898

Fermi level: -3.44966

 Band  Eigenvalues  Occupancy
    0     -6.28150    2.00000
    1     -3.93167    1.99987
    2     -3.64027    1.95676
    3     -3.45400    1.04337
    4     -1.82363    0.00000
    5     -1.22244    0.00000
    6     -0.65676    0.00000
    7     -0.48845    0.00000
    8      0.29908    0.00000
    9      1.52081    0.00000

Gap: 1.630 eV
Transition (v -> c):
  (s=0, k=0, n=3, [0.00, 0.00, 0.00]) -> (s=0, k=0, n=4, [0.00, 0.00, 0.00])

Forces in eV/Ang:
  0 Na   -6.33402   -4.17448   -3.70024
  1 Na    1.63571   -8.17504   -2.31674
  2 Na    8.27734   -1.04101   -3.75587
  3 Na    0.42163    7.27800   -1.59309
  4 Na   -6.11428    5.64283   -2.20009
  5 Na   -1.81728   -0.63095    7.14709
  6 Na    3.92865    1.09912    6.41536

System changes: positions 

Initializing position-dependent things.

Density initialized from wave functions
           .--------------------------------------.  
          /|                                      |  
         / |                                      |  
        /  |                                      |  
       /   |                                      |  
      /    |                                      |  
     /     |                                      |  
    /      |                                      |  
   /       |                                      |  
  /        |                                      |  
 *         |                                      |  
 |         |                                      |  
 |         |                                      |  
 |         |           Na                         |  
 |         |              Na                      |  
 |         |          Na     Na                   |  
 |         |                                      |  
 |         |         Na  Na  Na                   |  
 |         |                                      |  
 |         |                                      |  
 |         .--------------------------------------.  
 |        /                                      /   
 |       /                                      /    
 |      /                                      /     
 |     /                                      /      
 |    /                                      /       
 |   /                                      /        
 |  /                                      /         
 | /                                      /          
 |/                                      /           
 *--------------------------------------*            

Positions:
   0 Na     6.458067    6.723960    6.744069    ( 0.0000,  0.0000,  0.0000)
   1 Na     8.266243    6.519693    6.810459    ( 0.0000,  0.0000,  0.0000)
   2 Na     9.492303    7.778486    6.783853    ( 0.0000,  0.0000,  0.0000)
   3 Na     9.077265    9.590113    6.903073    ( 0.0000,  0.0000,  0.0000)
   4 Na     6.473779    8.299494    7.771148    ( 0.0000,  0.0000,  0.0000)
   5 Na     6.864384    7.989054    9.622809    ( 0.0000,  0.0000,  0.0000)
   6 Na     8.367949    8.099137    8.364651    ( 0.0000,  0.0000,  0.0000)

Unit cell:
           periodic     x           y           z      points  spacing
  1. axis:    no    16.000000    0.000000    0.000000    64     0.2500
  2. axis:    no     0.000000   16.000000    0.000000    64     0.2500
  3. axis:    no     0.000000    0.000000   16.000000    64     0.2500

  Lengths:  16.000000  16.000000  16.000000
  Angles:   90.000000  90.000000  90.000000

Effective grid spacing dv^(1/3) = 0.2500

                     log10-error:    total        iterations:
           time      wfs    density  energy       fermi  poisson
iter:   1  18:30:31          +inf    10.444215    5      1      
iter:   2  18:30:32         -1.14    10.487222    4      1      
iter:   3  18:30:33         -1.40    10.503200    4      1      
iter:   4  18:30:34         -1.75    10.506299    3      1      
iter:   5  18:30:36         -2.39    10.506427    3      1      
iter:   6  18:30:37         -2.61    10.506480    2      1      
iter:   7  18:30:38         -3.11    10.506484    2      1      
iter:   8  18:30:39         -3.44    10.506484    2      1      
iter:   9  18:30:41         -3.70    10.506484    1      1      
iter:  10  18:30:42         -3.95    10.506484    2      1      
iter:  11  18:30:43         -4.19    10.506484    2      1      

Converged after 11 iterations.

Dipole moment: (-0.124682, 0.061310, -0.009402) |e|*Ang

Energy contributions relative to reference atoms: (reference = -30790.959854)

Kinetic:       +141.664018
Potential:     -104.623363
External:        +0.000000
XC:             -27.488279
Entropy (-ST):   -0.071039
Local:           +0.989627
--------------------------
Free energy:    +10.470964
Extrapolated:   +10.506484

Fermi level: -3.25841

 Band  Eigenvalues  Occupancy
    0     -6.26432    2.00000
    1     -3.87141    1.99999
    2     -3.55882    1.99510
    3     -3.25890    1.00491
    4     -1.79560    0.00000
    5     -1.21675    0.00000
    6     -0.64519    0.00000
    7     -0.44122    0.00000
    8      0.48516    0.00000
    9      1.39704    0.00000

Gap: 1.463 eV
Transition (v -> c):
  (s=0, k=0, n=3, [0.00, 0.00, 0.00]) -> (s=0, k=0, n=4, [0.00, 0.00, 0.00])

Forces in eV/Ang:
  0 Na   -4.79840   -3.13166   -2.72905
  1 Na    1.26275   -6.24268   -1.57103
  2 Na    6.30878   -0.81061   -2.98755
  3 Na    0.09457    5.60438   -1.26864
  4 Na   -4.48576    4.57986   -1.86647
  5 Na   -1.63454   -0.66342    5.55050
  6 Na    3.25136    0.66354    4.87242

System changes: positions 

Initializing position-dependent things.

Density initialized from wave functions
           .--------------------------------------.  
          /|                                      |  
         / |                                      |  
        /  |                                      |  
       /   |                                      |  
      /    |                                      |  
     /     |                                      |  
    /      |                                      |  
   /       |                                      |  
  /        |                                      |  
 *         |                                      |  
 |         |                                      |  
 |         |                                      |  
 |         |           Na                         |  
 |         |               Na                     |  
 |         |          Na     Na                   |  
 |         |                                      |  
 |         |         Na      Na                   |  
 |         |             Na                       |  
 |         |                                      |  
 |         .--------------------------------------.  
 |        /                                      /   
 |       /                                      /    
 |      /                                      /     
 |     /                                      /      
 |    /                                      /       
 |   /                                      /        
 |  /                                      /         
 | /                                      /          
 |/                                      /           
 *--------------------------------------*            

Positions:
   0 Na     6.379525    6.671169    6.697456    ( 0.0000,  0.0000,  0.0000)
   1 Na     8.284803    6.415508    6.782004    ( 0.0000,  0.0000,  0.0000)
   2 Na     9.597915    7.767423    6.735710    ( 0.0000,  0.0000,  0.0000)
   3 Na     9.081625    9.680787    6.882671    ( 0.0000,  0.0000,  0.0000)
   4 Na     6.398209    8.372315    7.744201    ( 0.0000,  0.0000,  0.0000)
   5 Na     6.841147    7.980311    9.711477    ( 0.0000,  0.0000,  0.0000)
   6 Na     8.416738    8.112413    8.446514    ( 0.0000,  0.0000,  0.0000)

Unit cell:
           periodic     x           y           z      points  spacing
  1. axis:    no    16.000000    0.000000    0.000000    64     0.2500
  2. axis:    no     0.000000   16.000000    0.000000    64     0.2500
  3. axis:    no     0.000000    0.000000   16.000000    64     0.2500

  Lengths:  16.000000  16.000000  16.000000
  Angles:   90.000000  90.000000  90.000000

Effective grid spacing dv^(1/3) = 0.2500

                     log10-error:    total        iterations:
           time      wfs    density  energy       fermi  poisson
iter:   1  18:30:45          +inf     6.429085    4      1      
iter:   2  18:30:46         -1.25     6.455466    4      1      
iter:   3  18:30:48         -1.51     6.466680    3      1      
iter:   4  18:30:49         -1.88     6.468823    3      1      
iter:   5  18:30:50         -2.51     6.468894    2      1      
iter:   6  18:30:51         -2.71     6.468932    2      1      
iter:   7  18:30:53         -3.37     6.468933    2      1      
iter:   8  18:30:54         -3.63     6.468933    2      1      
iter:   9  18:30:55         -3.90     6.468933    2      1      
iter:  10  18:30:56         -4.17     6.468933    2      1      

Converged after 10 iterations.

Dipole moment: (-0.102507, 0.045219, 0.009938) |e|*Ang

Energy contributions relative to reference atoms: (reference = -30790.959854)

Kinetic:       +125.413600
Potential:      -94.447113
External:        +0.000000
XC:             -25.020419
Entropy (-ST):   -0.069857
Local:           +0.557794
--------------------------
Free energy:     +6.434005
Extrapolated:    +6.468933

Fermi level: -3.12486

 Band  Eigenvalues  Occupancy
    0     -6.16437    2.00000
    1     -3.81988    2.00000
    2     -3.49181    1.99870
    3     -3.12499    1.00130
    4     -1.74266    0.00000
    5     -1.23536    0.00000
    6     -0.66208    0.00000
    7     -0.38365    0.00000
    8      0.68324    0.00000
    9      1.32173    0.00000

Gap: 1.382 eV
Transition (v -> c):
  (s=0, k=0, n=3, [0.00, 0.00, 0.00]) -> (s=0, k=0, n=4, [0.00, 0.00, 0.00])

Forces in eV/Ang:
  0 Na   -3.73009   -2.37735   -2.02735
  1 Na    1.02845   -4.76487   -1.02041
  2 Na    4.86369   -0.66819   -2.39840
  3 Na   -0.10845    4.38301   -0.99924
  4 Na   -3.31376    3.73109   -1.60975
  5 Na   -1.51002   -0.66937    4.40615
  6 Na    2.76852    0.36818    3.65182

System changes: positions 

Initializing position-dependent things.

Density initialized from wave functions
           .--------------------------------------.  
          /|                                      |  
         / |                                      |  
        /  |                                      |  
       /   |                                      |  
      /    |                                      |  
     /     |                                      |  
    /      |                                      |  
   /       |                                      |  
  /        |                                      |  
 *         |                                      |  
 |         |                                      |  
 |         |                                      |  
 |         |           Na                         |  
 |         |               Na                     |  
 |         |          Na     Na                   |  
 |         |                                      |  
 |         |                 Na                   |  
 |         |         Na  Na                       |  
 |         |                                      |  
 |         .--------------------------------------.  
 |        /                                      /   
 |       /                                      /    
 |      /                                      /     
 |     /                                      /      
 |    /                                      /       
 |   /                                      /        
 |  /                                      /         
 | /                                      /          
 |/                                      /           
 *--------------------------------------*            

Positions:
   0 Na     6.309306    6.623964    6.656650    ( 0.0000,  0.0000,  0.0000)
   1 Na     8.301348    6.320779    6.758865    ( 0.0000,  0.0000,  0.0000)
   2 Na     9.693164    7.757840    6.690633    ( 0.0000,  0.0000,  0.0000)
   3 Na     9.082321    9.762956    6.863651    ( 0.0000,  0.0000,  0.0000)
   4 Na     6.332956    8.442168    7.717988    ( 0.0000,  0.0000,  0.0000)
   5 Na     6.816583    7.969999    9.792225    ( 0.0000,  0.0000,  0.0000)
   6 Na     8.464254    8.122223    8.520004    ( 0.0000,  0.0000,  0.0000)

Unit cell:
           periodic     x           y           z      points  spacing
  1. axis:    no    16.000000    0.000000    0.000000    64     0.2500
  2. axis:    no     0.000000   16.000000    0.000000    64     0.2500
  3. axis:    no     0.000000    0.000000   16.000000    64     0.2500

  Lengths:  16.000000  16.000000  16.000000
  Angles:   90.000000  90.000000  90.000000

Effective grid spacing dv^(1/3) = 0.2500

                     log10-error:    total        iterations:
           time      wfs    density  energy       fermi  poisson
iter:   1  18:30:58          +inf     3.563717    3      1      
iter:   2  18:31:00         -1.37     3.578464    3      1      
iter:   3  18:31:01         -1.62     3.585556    3      1      
iter:   4  18:31:02         -2.01     3.586909    3      1      
iter:   5  18:31:03         -2.62     3.586959    2      1      
iter:   6  18:31:05         -2.82     3.586984    2      1      
iter:   7  18:31:06         -3.50     3.586985    2      1      
iter:   8  18:31:07         -3.76     3.586985    2      1      
iter:   9  18:31:08         -4.06     3.586985    2      1      

Converged after 9 iterations.

Dipole moment: (-0.083615, 0.043257, 0.031483) |e|*Ang

Energy contributions relative to reference atoms: (reference = -30790.959854)

Kinetic:       +111.127435
Potential:      -84.954755
External:        +0.000000
XC:             -22.890711
Entropy (-ST):   -0.069632
Local:           +0.339832
--------------------------
Free energy:     +3.552169
Extrapolated:    +3.586985

Fermi level: -3.03700

 Band  Eigenvalues  Occupancy
    0     -6.02645    2.00000
    1     -3.77290    2.00000
    2     -3.43422    1.99929
    3     -3.03707    1.00071
    4     -1.69265    0.00000
    5     -1.26793    0.00000
    6     -0.71061    0.00000
    7     -0.29211    0.00000
    8      0.83591    0.00000
    9      1.32339    0.00000

Gap: 1.344 eV
Transition (v -> c):
  (s=0, k=0, n=3, [0.00, 0.00, 0.00]) -> (s=0, k=0, n=4, [0.00, 0.00, 0.00])

Forces in eV/Ang:
  0 Na   -2.99288   -1.86094   -1.54588
  1 Na    0.84918   -3.72480   -0.64903
  2 Na    3.85323   -0.53657   -1.95988
  3 Na   -0.21972    3.48869   -0.78157
  4 Na   -2.45273    3.07387   -1.34340
  5 Na   -1.40748   -0.64012    3.54438
  6 Na    2.36814    0.20013    2.73647

System changes: positions 

Initializing position-dependent things.

Density initialized from wave functions
           .--------------------------------------.  
          /|                                      |  
         / |                                      |  
        /  |                                      |  
       /   |                                      |  
      /    |                                      |  
     /     |                                      |  
    /      |                                      |  
   /       |                                      |  
  /        |                                      |  
 *         |                                      |  
 |         |                                      |  
 |         |                                      |  
 |         |           Na                         |  
 |         |               Na                     |  
 |         |          Na     Na                   |  
 |         |                                      |  
 |         |                  Na                  |  
 |         |        Na   Na                       |  
 |         |                                      |  
 |         .--------------------------------------.  
 |        /                                      /   
 |       /                                      /    
 |      /                                      /     
 |     /                                      /      
 |    /                                      /       
 |   /                                      /        
 |  /                                      /         
 | /                                      /          
 |/                                      /           
 *--------------------------------------*            

Positions:
   0 Na     6.242987    6.580446    6.619802    ( 0.0000,  0.0000,  0.0000)
   1 Na     8.318148    6.232671    6.740067    ( 0.0000,  0.0000,  0.0000)
   2 Na     9.781854    7.747777    6.646979    ( 0.0000,  0.0000,  0.0000)
   3 Na     9.079974    9.841140    6.845463    ( 0.0000,  0.0000,  0.0000)
   4 Na     6.274234    8.510828    7.690564    ( 0.0000,  0.0000,  0.0000)
   5 Na     6.789465    7.957920    9.870009    ( 0.0000,  0.0000,  0.0000)
   6 Na     8.513233    8.129158    8.587134    ( 0.0000,  0.0000,  0.0000)

Unit cell:
           periodic     x           y           z      points  spacing
  1. axis:    no    16.000000    0.000000    0.000000    64     0.2500
  2. axis:    no     0.000000   16.000000    0.000000    64     0.2500
  3. axis:    no     0.000000    0.000000   16.000000    64     0.2500

  Lengths:  16.000000  16.000000  16.000000
  Angles:   90.000000  90.000000  90.000000

Effective grid spacing dv^(1/3) = 0.2500

                     log10-error:    total        iterations:
           time      wfs    density  energy       fermi  poisson
iter:   1  18:31:10          +inf     1.398896    3      1      
iter:   2  18:31:12         -1.49     1.407583    3      1      
iter:   3  18:31:13         -1.72     1.412368    3      1      
iter:   4  18:31:14         -2.13     1.413229    3      1      
iter:   5  18:31:15         -2.71     1.413267    2      1      
iter:   6  18:31:17         -2.91     1.413285    2      1      
iter:   7  18:31:18         -3.55     1.413285    2      1      
iter:   8  18:31:19         -3.84     1.413285    2      1      
iter:   9  18:31:20         -4.09     1.413285    2      1      

Converged after 9 iterations.

Dipole moment: (-0.067954, 0.051086, 0.052720) |e|*Ang

Energy contributions relative to reference atoms: (reference = -30790.959854)

Kinetic:        +98.495982
Potential:      -76.267197
External:        +0.000000
XC:             -21.002964
Entropy (-ST):   -0.069567
Local:           +0.222248
--------------------------
Free energy:     +1.378502
Extrapolated:    +1.413285

Fermi level: -2.97407

 Band  Eigenvalues  Occupancy
    0     -5.87454    2.00000
    1     -3.72730    2.00000
    2     -3.38426    1.99945
    3     -2.97412    1.00055
    4     -1.65536    0.00000
    5     -1.30333    0.00000
    6     -0.78116    0.00000
    7     -0.15938    0.00000
    8      0.92431    0.00000
    9      1.37125    0.00000

Gap: 1.319 eV
Transition (v -> c):
  (s=0, k=0, n=3, [0.00, 0.00, 0.00]) -> (s=0, k=0, n=4, [0.00, 0.00, 0.00])

Forces in eV/Ang:
  0 Na   -2.44270   -1.47702   -1.19467
  1 Na    0.70053   -2.95907   -0.39404
  2 Na    3.10129   -0.40503   -1.61633
  3 Na   -0.27221    2.78896   -0.60706
  4 Na   -1.79140    2.52700   -1.07159
  5 Na   -1.30156   -0.58467    2.83896
  6 Na    2.00345    0.10921    2.04387

System changes: positions 

Initializing position-dependent things.

Density initialized from wave functions
           .--------------------------------------.  
          /|                                      |  
         / |                                      |  
        /  |                                      |  
       /   |                                      |  
      /    |                                      |  
     /     |                                      |  
    /      |                                      |  
   /       |                                      |  
  /        |                                      |  
 *         |                                      |  
 |         |                                      |  
 |         |                                      |  
 |         |          Na                          |  
 |         |               Na                     |  
 |         |          Na     Na                   |  
 |         |                                      |  
 |         |                  Na                  |  
 |         |        Na   Na                       |  
 |         |                                      |  
 |         .--------------------------------------.  
 |        /                                      /   
 |       /                                      /    
 |      /                                      /     
 |     /                                      /      
 |    /                                      /       
 |   /                                      /        
 |  /                                      /         
 | /                                      /          
 |/                                      /           
 *--------------------------------------*            

Positions:
   0 Na     6.180780    6.541021    6.587100    ( 0.0000,  0.0000,  0.0000)
   1 Na     8.335242    6.152603    6.725628    ( 0.0000,  0.0000,  0.0000)
   2 Na     9.863151    7.737264    6.605529    ( 0.0000,  0.0000,  0.0000)
   3 Na     9.075240    9.914395    6.828609    ( 0.0000,  0.0000,  0.0000)
   4 Na     6.222478    8.576436    7.662799    ( 0.0000,  0.0000,  0.0000)
   5 Na     6.760418    7.944642    9.943840    ( 0.0000,  0.0000,  0.0000)
   6 Na     8.562543    8.133593    8.646528    ( 0.0000,  0.0000,  0.0000)

Unit cell:
           periodic     x           y           z      points  spacing
  1. axis:    no    16.000000    0.000000    0.000000    64     0.2500
  2. axis:    no     0.000000   16.000000    0.000000    64     0.2500
  3. axis:    no     0.000000    0.000000   16.000000    64     0.2500

  Lengths:  16.000000  16.000000  16.000000
  Angles:   90.000000  90.000000  90.000000

Effective grid spacing dv^(1/3) = 0.2500

                     log10-error:    total        iterations:
           time      wfs    density  energy       fermi  poisson
iter:   1  18:31:22          +inf    -0.222618    3      1      
iter:   2  18:31:24         -1.62    -0.217777    3      1      
iter:   3  18:31:25         -1.83    -0.214679    3      1      
iter:   4  18:31:26         -2.26    -0.214194    2      1      
iter:   5  18:31:27         -2.79    -0.214165    2      1      
iter:   6  18:31:29         -3.01    -0.214152    2      1      
iter:   7  18:31:30         -3.61    -0.214152    2      1      
iter:   8  18:31:31         -3.90    -0.214152    2      1      
iter:   9  18:31:32         -4.16    -0.214152    2      1      

Converged after 9 iterations.

Dipole moment: (-0.054884, 0.063725, 0.071957) |e|*Ang

Energy contributions relative to reference atoms: (reference = -30790.959854)

Kinetic:        +87.634836
Potential:      -68.612090
External:        +0.000000
XC:             -19.358810
Entropy (-ST):   -0.069556
Local:           +0.156691
--------------------------
Free energy:     -0.248930
Extrapolated:    -0.214152

Fermi level: -2.92940

 Band  Eigenvalues  Occupancy
    0     -5.72625    2.00000
    1     -3.68464    2.00000
    2     -3.34211    1.99948
    3     -2.92945    1.00052
    4     -1.63210    0.00000
    5     -1.33266    0.00000
    6     -0.85548    0.00000
    7      0.00133    0.00000
    8      0.97362    0.00000
    9      1.40883    0.00000

Gap: 1.297 eV
Transition (v -> c):
  (s=0, k=0, n=3, [0.00, 0.00, 0.00]) -> (s=0, k=0, n=4, [0.00, 0.00, 0.00])

Forces in eV/Ang:
  0 Na   -2.02524   -1.18837   -0.93854
  1 Na    0.57541   -2.39953   -0.22533
  2 Na    2.54142   -0.28161   -1.34929
  3 Na   -0.28416    2.24203   -0.47280
  4 Na   -1.30034    2.07827   -0.82487
  5 Na   -1.18780   -0.51561    2.26770
  6 Na    1.67980    0.06640    1.54325

System changes: positions 

Initializing position-dependent things.

Density initialized from wave functions
           .--------------------------------------.  
          /|                                      |  
         / |                                      |  
        /  |                                      |  
       /   |                                      |  
      /    |                                      |  
     /     |                                      |  
    /      |                                      |  
   /       |                                      |  
  /        |                                      |  
 *         |                                      |  
 |         |                                      |  
 |         |                                      |  
 |         |          Na                          |  
 |         |               Na                     |  
 |         |         Na      Na                   |  
 |         |                                      |  
 |         |                  Na                  |  
 |         |        Na   Na                       |  
 |         |                                      |  
 |         .--------------------------------------.  
 |        /                                      /   
 |       /                                      /    
 |      /                                      /     
 |     /                                      /      
 |    /                                      /       
 |   /                                      /        
 |  /                                      /         
 | /                                      /          
 |/                                      /           
 *--------------------------------------*            

Positions:
   0 Na     6.122395    6.505302    6.558043    ( 0.0000,  0.0000,  0.0000)
   1 Na     8.352246    6.080014    6.714923    ( 0.0000,  0.0000,  0.0000)
   2 Na     9.937758    7.726888    6.566426    ( 0.0000,  0.0000,  0.0000)
   3 Na     9.068873    9.982499    6.813251    ( 0.0000,  0.0000,  0.0000)
   4 Na     6.177340    8.638265    7.635816    ( 0.0000,  0.0000,  0.0000)
   5 Na     6.730155    7.930764   10.013105    ( 0.0000,  0.0000,  0.0000)
   6 Na     8.611047    8.136244    8.698494    ( 0.0000,  0.0000,  0.0000)

Unit cell:
           periodic     x           y           z      points  spacing
  1. axis:    no    16.000000    0.000000    0.000000    64     0.2500
  2. axis:    no     0.000000   16.000000    0.000000    64     0.2500
  3. axis:    no     0.000000    0.000000   16.000000    64     0.2500

  Lengths:  16.000000  16.000000  16.000000
  Angles:   90.000000  90.000000  90.000000

Effective grid spacing dv^(1/3) = 0.2500

                     log10-error:    total        iterations:
           time      wfs    density  energy       fermi  poisson
iter:   1  18:31:34          +inf    -1.442934    3      1      
iter:   2  18:31:36         -1.74    -1.440228    3      1      
iter:   3  18:31:37         -1.95    -1.438243    2      1      
iter:   4  18:31:38         -2.41    -1.437993    2      1      
iter:   5  18:31:39         -2.83    -1.437958    2      1      
iter:   6  18:31:41         -3.14    -1.437950    2      1      
iter:   7  18:31:42         -3.60    -1.437949    2      1      
iter:   8  18:31:43         -3.89    -1.437949    2      1      
iter:   9  18:31:44         -4.20    -1.437949    1      1      

Converged after 9 iterations.

Dipole moment: (-0.043904, 0.077919, 0.088474) |e|*Ang

Energy contributions relative to reference atoms: (reference = -30790.959854)

Kinetic:        +78.354366
Potential:      -61.947203
External:        +0.000000
XC:             -17.928918
Entropy (-ST):   -0.069579
Local:           +0.118595
--------------------------
Free energy:     -1.472738
Extrapolated:    -1.437949

Fermi level: -2.89852

 Band  Eigenvalues  Occupancy
    0     -5.58864    2.00000
    1     -3.64538    2.00000
    2     -3.30620    1.99942
    3     -2.89858    1.00058
    4     -1.61938    0.00000
    5     -1.35542    0.00000
    6     -0.92259    0.00000
    7      0.17584    0.00000
    8      1.01318    0.00000
    9      1.43620    0.00000

Gap: 1.279 eV
Transition (v -> c):
  (s=0, k=0, n=3, [0.00, 0.00, 0.00]) -> (s=0, k=0, n=4, [0.00, 0.00, 0.00])

Forces in eV/Ang:
  0 Na   -1.69943   -0.96814   -0.74881
  1 Na    0.47133   -1.98245   -0.11512
  2 Na    2.10903   -0.17517   -1.13934
  3 Na   -0.27199    1.80883   -0.36970
  4 Na   -0.94129    1.71421   -0.61691
  5 Na   -1.06934   -0.44468    1.80732
  6 Na    1.40327    0.04945    1.18221

System changes: positions 

Initializing position-dependent things.

Density initialized from wave functions
           .--------------------------------------.  
          /|                                      |  
         / |                                      |  
        /  |                                      |  
       /   |                                      |  
      /    |                                      |  
     /     |                                      |  
    /      |                                      |  
   /       |                                      |  
  /        |                                      |  
 *         |                                      |  
 |         |                                      |  
 |         |          Na                          |  
 |         |                                      |  
 |         |               Na                     |  
 |         |         Na      Na                   |  
 |         |                                      |  
 |         |                  Na                  |  
 |         |        Na   Na                       |  
 |         |                                      |  
 |         .--------------------------------------.  
 |        /                                      /   
 |       /                                      /    
 |      /                                      /     
 |     /                                      /      
 |    /                                      /       
 |   /                                      /        
 |  /                                      /         
 | /                                      /          
 |/                                      /           
 *--------------------------------------*            

Positions:
   0 Na     6.066692    6.472265    6.531639    ( 0.0000,  0.0000,  0.0000)
   1 Na     8.368962    6.012801    6.707078    ( 0.0000,  0.0000,  0.0000)
   2 Na    10.007659    7.717150    6.529038    ( 0.0000,  0.0000,  0.0000)
   3 Na     9.061416   10.046409    6.799172    ( 0.0000,  0.0000,  0.0000)
   4 Na     6.137637    8.696966    7.610193    ( 0.0000,  0.0000,  0.0000)
   5 Na     6.698900    7.916595   10.078350    ( 0.0000,  0.0000,  0.0000)
   6 Na     8.658522    8.137822    8.744612    ( 0.0000,  0.0000,  0.0000)

Unit cell:
           periodic     x           y           z      points  spacing
  1. axis:    no    16.000000    0.000000    0.000000    64     0.2500
  2. axis:    no     0.000000   16.000000    0.000000    64     0.2500
  3. axis:    no     0.000000    0.000000   16.000000    64     0.2500

  Lengths:  16.000000  16.000000  16.000000
  Angles:   90.000000  90.000000  90.000000

Effective grid spacing dv^(1/3) = 0.2500

                     log10-error:    total        iterations:
           time      wfs    density  energy       fermi  poisson
iter:   1  18:31:46          +inf    -2.380015    3      1      
iter:   2  18:31:48         -1.85    -2.378398    2      1      
iter:   3  18:31:49         -2.06    -2.377101    2      1      
iter:   4  18:31:50         -2.54    -2.376955    2      1      
iter:   5  18:31:51         -2.85    -2.376917    2      1      
iter:   6  18:31:53         -3.28    -2.376912    2      1      
iter:   7  18:31:54         -3.65    -2.376912    1      1      
iter:   8  18:31:55         -3.98    -2.376911    2      1      
iter:   9  18:31:56         -4.23    -2.376911    1      1      

Converged after 9 iterations.

Dipole moment: (-0.034359, 0.092066, 0.102589) |e|*Ang

Energy contributions relative to reference atoms: (reference = -30790.959854)

Kinetic:        +70.310634
Potential:      -56.083424
External:        +0.000000
XC:             -16.664301
Entropy (-ST):   -0.069632
Local:           +0.094995
--------------------------
Free energy:     -2.411727
Extrapolated:    -2.376911

Fermi level: -2.87735

 Band  Eigenvalues  Occupancy
    0     -5.46185    2.00000
    1     -3.60901    2.00000
    2     -3.27472    1.99929
    3     -2.87742    1.00071
    4     -1.61367    0.00000
    5     -1.37372    0.00000
    6     -0.98059    0.00000
    7      0.35663    0.00000
    8      1.05360    0.00000
    9      1.46458    0.00000

Gap: 1.264 eV
Transition (v -> c):
  (s=0, k=0, n=3, [0.00, 0.00, 0.00]) -> (s=0, k=0, n=4, [0.00, 0.00, 0.00])

Forces in eV/Ang:
  0 Na   -1.43429   -0.79592   -0.60321
  1 Na    0.38395   -1.65523   -0.04317
  2 Na    1.75996   -0.08805   -0.96775
  3 Na   -0.24711    1.45941   -0.28864
  4 Na   -0.67760    1.41191   -0.44858
  5 Na   -0.95133   -0.37617    1.43506
  6 Na    1.16659    0.04473    0.91376

System changes: positions 

Initializing position-dependent things.

Density initialized from wave functions
           .--------------------------------------.  
          /|                                      |  
         / |                                      |  
        /  |                                      |  
       /   |                                      |  
      /    |                                      |  
     /     |                                      |  
    /      |                                      |  
   /       |                                      |  
  /        |                                      |  
 *         |                                      |  
 |         |                                      |  
 |         |          Na                          |  
 |         |                                      |  
 |         |               Na                     |  
 |         |         Na      Na                   |  
 |         |                                      |  
 |         |                  Na                  |  
 |         |        Na   Na                       |  
 |         |                                      |  
 |         .--------------------------------------.  
 |        /                                      /   
 |       /                                      /    
 |      /                                      /     
 |     /                                      /      
 |    /                                      /       
 |   /                                      /        
 |  /                                      /         
 | /                                      /          
 |/                                      /           
 *--------------------------------------*            

Positions:
   0 Na     6.014267    6.441948    6.507788    ( 0.0000,  0.0000,  0.0000)
   1 Na     8.384808    5.950945    6.701548    ( 0.0000,  0.0000,  0.0000)
   2 Na    10.072572    7.708661    6.493795    ( 0.0000,  0.0000,  0.0000)
   3 Na     9.053477   10.105283    6.786508    ( 0.0000,  0.0000,  0.0000)
   4 Na     6.103323    8.751640    7.586912    ( 0.0000,  0.0000,  0.0000)
   5 Na     6.667689    7.902740   10.138392    ( 0.0000,  0.0000,  0.0000)
   6 Na     8.703630    8.138819    8.785145    ( 0.0000,  0.0000,  0.0000)

Unit cell:
           periodic     x           y           z      points  spacing
  1. axis:    no    16.000000    0.000000    0.000000    64     0.2500
  2. axis:    no     0.000000   16.000000    0.000000    64     0.2500
  3. axis:    no     0.000000    0.000000   16.000000    64     0.2500

  Lengths:  16.000000  16.000000  16.000000
  Angles:   90.000000  90.000000  90.000000

Effective grid spacing dv^(1/3) = 0.2500

                     log10-error:    total        iterations:
           time      wfs    density  energy       fermi  poisson
iter:   1  18:31:58          +inf    -3.092277    3      1      
iter:   2  18:32:00         -1.96    -3.091281    2      1      
iter:   3  18:32:01         -2.17    -3.090471    2      1      
iter:   4  18:32:02         -2.63    -3.090351    2      1      
iter:   5  18:32:03         -2.95    -3.090324    2      1      
iter:   6  18:32:05         -3.42    -3.090321    2      1      
iter:   7  18:32:06         -3.83    -3.090321    2      1      
iter:   8  18:32:07         -4.17    -3.090321    1      1      

Converged after 8 iterations.

Dipole moment: (-0.025917, 0.105186, 0.114416) |e|*Ang

Energy contributions relative to reference atoms: (reference = -30790.959854)

Kinetic:        +63.436375
Potential:      -51.011673
External:        +0.000000
XC:             -15.559765
Entropy (-ST):   -0.069716
Local:           +0.079599
--------------------------
Free energy:     -3.125178
Extrapolated:    -3.090321

Fermi level: -2.86310

 Band  Eigenvalues  Occupancy
    0     -5.34788    2.00000
    1     -3.57599    2.00000
    2     -3.24722    1.99908
    3     -2.86319    1.00092
    4     -1.61295    0.00000
    5     -1.38905    0.00000
    6     -1.02958    0.00000
    7      0.53407    0.00000
    8      1.09645    0.00000
    9      1.49726    0.00000

Gap: 1.250 eV
Transition (v -> c):
  (s=0, k=0, n=3, [0.00, 0.00, 0.00]) -> (s=0, k=0, n=4, [0.00, 0.00, 0.00])

Forces in eV/Ang:
  0 Na   -1.21594   -0.65947   -0.48942
  1 Na    0.31322   -1.39388    0.00399
  2 Na    1.47599   -0.02170   -0.82567
  3 Na   -0.21663    1.18316   -0.22576
  4 Na   -0.48536    1.16329   -0.31742
  5 Na   -0.84012   -0.31454    1.14088
  6 Na    0.96933    0.04596    0.71370

System changes: positions 

Initializing position-dependent things.

Density initialized from wave functions
           .--------------------------------------.  
          /|                                      |  
         / |                                      |  
        /  |                                      |  
       /   |                                      |  
      /    |                                      |  
     /     |                                      |  
    /      |                                      |  
   /       |                                      |  
  /        |                                      |  
 *         |                                      |  
 |         |                                      |  
 |         |          Na                          |  
 |         |                                      |  
 |         |               Na                     |  
 |         |         Na      Na                   |  
 |         |                                      |  
 |         |                   Na                 |  
 |         |        Na   Na                       |  
 |         |                                      |  
 |         .--------------------------------------.  
 |        /                                      /   
 |       /                                      /    
 |      /                                      /     
 |     /                                      /      
 |    /                                      /       
 |   /                                      /        
 |  /                                      /         
 | /                                      /          
 |/                                      /           
 *--------------------------------------*            

Positions:
   0 Na     5.964877    6.413954    6.486076    ( 0.0000,  0.0000,  0.0000)
   1 Na     8.399603    5.893534    6.697779    ( 0.0000,  0.0000,  0.0000)
   2 Na    10.133143    7.701669    6.460531    ( 0.0000,  0.0000,  0.0000)
   3 Na     9.045426   10.159413    6.775128    ( 0.0000,  0.0000,  0.0000)
   4 Na     6.073703    8.802439    7.566237    ( 0.0000,  0.0000,  0.0000)
   5 Na     6.636947    7.889465   10.193310    ( 0.0000,  0.0000,  0.0000)
   6 Na     8.746053    8.139607    8.821039    ( 0.0000,  0.0000,  0.0000)

Unit cell:
           periodic     x           y           z      points  spacing
  1. axis:    no    16.000000    0.000000    0.000000    64     0.2500
  2. axis:    no     0.000000   16.000000    0.000000    64     0.2500
  3. axis:    no     0.000000    0.000000   16.000000    64     0.2500

  Lengths:  16.000000  16.000000  16.000000
  Angles:   90.000000  90.000000  90.000000

Effective grid spacing dv^(1/3) = 0.2500

                     log10-error:    total        iterations:
           time      wfs    density  energy       fermi  poisson
iter:   1  18:32:09          +inf    -3.637057    3      1      
iter:   2  18:32:10         -2.05    -3.636395    2      1      
iter:   3  18:32:11         -2.27    -3.635889    2      1      
iter:   4  18:32:13         -2.66    -3.635776    2      1      
iter:   5  18:32:14         -3.03    -3.635757    2      1      
iter:   6  18:32:15         -3.48    -3.635754    2      1      
iter:   7  18:32:16         -3.86    -3.635754    2      1      
iter:   8  18:32:18         -4.27    -3.635754    2      1      

Converged after 8 iterations.

Dipole moment: (-0.018203, 0.116590, 0.124290) |e|*Ang

Energy contributions relative to reference atoms: (reference = -30790.959854)

Kinetic:        +57.543648
Potential:      -46.621748
External:        +0.000000
XC:             -14.591788
Entropy (-ST):   -0.069833
Local:           +0.069049
--------------------------
Free energy:     -3.670670
Extrapolated:    -3.635754

Fermi level: -2.85329

 Band  Eigenvalues  Occupancy
    0     -5.24574    2.00000
    1     -3.54597    2.00000
    2     -3.22293    1.99877
    3     -2.85341    1.00123
    4     -1.61594    0.00000
    5     -1.40235    0.00000
    6     -1.07173    0.00000
    7      0.70296    0.00000
    8      1.14236    0.00000
    9      1.53485    0.00000

Gap: 1.237 eV
Transition (v -> c):
  (s=0, k=0, n=3, [0.00, 0.00, 0.00]) -> (s=0, k=0, n=4, [0.00, 0.00, 0.00])

Forces in eV/Ang:
  0 Na   -1.03506   -0.54951   -0.40020
  1 Na    0.25698   -1.18231    0.03330
  2 Na    1.24241    0.02579   -0.70696
  3 Na   -0.18545    0.96187   -0.17580
  4 Na   -0.34496    0.95905   -0.21730
  5 Na   -0.73820   -0.26195    0.90528
  6 Na    0.80586    0.04876    0.56205

System changes: positions 

Initializing position-dependent things.

Density initialized from wave functions
           .--------------------------------------.  
          /|                                      |  
         / |                                      |  
        /  |                                      |  
       /   |                                      |  
      /    |                                      |  
     /     |                                      |  
    /      |                                      |  
   /       |                                      |  
  /        |                                      |  
 *         |                                      |  
 |         |                                      |  
 |         |          Na                          |  
 |         |                                      |  
 |         |                Na                    |  
 |         |         Na      Na                   |  
 |         |                                      |  
 |         |                   Na                 |  
 |         |       Na    Na                       |  
 |         |                                      |  
 |         .--------------------------------------.  
 |        /                                      /   
 |       /                                      /    
 |      /                                      /     
 |     /                                      /      
 |    /                                      /       
 |   /                                      /        
 |  /                                      /         
 | /                                      /          
 |/                                      /           
 *--------------------------------------*            

Positions:
   0 Na     5.919519    6.388669    6.466720    ( 0.0000,  0.0000,  0.0000)
   1 Na     8.412920    5.841280    6.695449    ( 0.0000,  0.0000,  0.0000)
   2 Na    10.188363    7.696438    6.429906    ( 0.0000,  0.0000,  0.0000)
   3 Na     9.037718   10.207782    6.765195    ( 0.0000,  0.0000,  0.0000)
   4 Na     6.048886    8.848303    7.548730    ( 0.0000,  0.0000,  0.0000)
   5 Na     6.607718    7.877249   10.241939    ( 0.0000,  0.0000,  0.0000)
   6 Na     8.784632    8.140408    8.852175    ( 0.0000,  0.0000,  0.0000)

Unit cell:
           periodic     x           y           z      points  spacing
  1. axis:    no    16.000000    0.000000    0.000000    64     0.2500
  2. axis:    no     0.000000   16.000000    0.000000    64     0.2500
  3. axis:    no     0.000000    0.000000   16.000000    64     0.2500

  Lengths:  16.000000  16.000000  16.000000
  Angles:   90.000000  90.000000  90.000000

Effective grid spacing dv^(1/3) = 0.2500

                     log10-error:    total        iterations:
           time      wfs    density  energy       fermi  poisson
iter:   1  18:32:20          +inf    -4.045773    3      1      
iter:   2  18:32:21         -2.13    -4.045319    2      1      
iter:   3  18:32:22         -2.36    -4.045006    2      1      
iter:   4  18:32:23         -2.71    -4.044914    2      1      
iter:   5  18:32:25         -3.09    -4.044899    2      1      
iter:   6  18:32:26         -3.55    -4.044897    2      1      
iter:   7  18:32:27         -3.86    -4.044897    2      1      
iter:   8  18:32:28         -4.36    -4.044897    2      1      

Converged after 8 iterations.

Dipole moment: (-0.011240, 0.125995, 0.132533) |e|*Ang

Energy contributions relative to reference atoms: (reference = -30790.959854)

Kinetic:        +52.605008
Potential:      -42.913746
External:        +0.000000
XC:             -13.762696
Entropy (-ST):   -0.069978
Local:           +0.061526
--------------------------
Free energy:     -4.079886
Extrapolated:    -4.044897

Fermi level: -2.84642

 Band  Eigenvalues  Occupancy
    0     -5.15679    2.00000
    1     -3.51953    2.00000
    2     -3.20194    1.99837
    3     -2.84658    1.00163
    4     -1.62156    0.00000
    5     -1.41391    0.00000
    6     -1.10794    0.00000
    7      0.85435    0.00000
    8      1.19094    0.00000
    9      1.57692    0.00000

Gap: 1.225 eV
Transition (v -> c):
  (s=0, k=0, n=3, [0.00, 0.00, 0.00]) -> (s=0, k=0, n=4, [0.00, 0.00, 0.00])

Forces in eV/Ang:
  0 Na   -0.88638   -0.46190   -0.32858
  1 Na    0.21324   -1.01054    0.05081
  2 Na    1.05052    0.05639   -0.60873
  3 Na   -0.15701    0.78814   -0.13678
  4 Na   -0.24440    0.79606   -0.14430
  5 Na   -0.64787   -0.21857    0.72153
  6 Na    0.67225    0.05094    0.44737

System changes: positions 

Initializing position-dependent things.

Density initialized from wave functions
           .--------------------------------------.  
          /|                                      |  
         / |                                      |  
        /  |                                      |  
       /   |                                      |  
      /    |                                      |  
     /     |                                      |  
    /      |                                      |  
   /       |                                      |  
  /        |                                      |  
 *         |                                      |  
 |         |                                      |  
 |         |          Na                          |  
 |         |                                      |  
 |         |                Na                    |  
 |         |         Na      Na                   |  
 |         |                                      |  
 |         |                   Na                 |  
 |         |       Na    Na                       |  
 |         |                                      |  
 |         .--------------------------------------.  
 |        /                                      /   
 |       /                                      /    
 |      /                                      /     
 |     /                                      /      
 |    /                                      /       
 |   /                                      /        
 |  /                                      /         
 | /                                      /          
 |/                                      /           
 *--------------------------------------*            

Positions:
   0 Na     5.879263    6.366561    6.450032    ( 0.0000,  0.0000,  0.0000)
   1 Na     8.424398    5.795121    6.694313    ( 0.0000,  0.0000,  0.0000)
   2 Na    10.237046    7.693086    6.402637    ( 0.0000,  0.0000,  0.0000)
   3 Na     9.030740   10.249369    6.756878    ( 0.0000,  0.0000,  0.0000)
   4 Na     6.029019    8.888171    7.534795    ( 0.0000,  0.0000,  0.0000)
   5 Na     6.581006    7.866515   10.283192    ( 0.0000,  0.0000,  0.0000)
   6 Na     8.818291    8.141344    8.878288    ( 0.0000,  0.0000,  0.0000)

Unit cell:
           periodic     x           y           z      points  spacing
  1. axis:    no    16.000000    0.000000    0.000000    64     0.2500
  2. axis:    no     0.000000   16.000000    0.000000    64     0.2500
  3. axis:    no     0.000000    0.000000   16.000000    64     0.2500

  Lengths:  16.000000  16.000000  16.000000
  Angles:   90.000000  90.000000  90.000000

Effective grid spacing dv^(1/3) = 0.2500

                     log10-error:    total        iterations:
           time      wfs    density  energy       fermi  poisson
iter:   1  18:32:30          +inf    -4.344937    3      1      
iter:   2  18:32:32         -2.20    -4.344624    2      1      
iter:   3  18:32:33         -2.44    -4.344429    2      1      
iter:   4  18:32:34         -2.76    -4.344365    2      1      
iter:   5  18:32:35         -3.14    -4.344353    2      1      
iter:   6  18:32:37         -3.65    -4.344352    2      1      
iter:   7  18:32:38         -3.93    -4.344352    2      1      
iter:   8  18:32:39         -4.44    -4.344352    2      1      

Converged after 8 iterations.

Dipole moment: (-0.005051, 0.133323, 0.139199) |e|*Ang

Energy contributions relative to reference atoms: (reference = -30790.959854)

Kinetic:        +48.584732
Potential:      -39.875978
External:        +0.000000
XC:             -13.074197
Entropy (-ST):   -0.070142
Local:           +0.056162
--------------------------
Free energy:     -4.379423
Extrapolated:    -4.344352

Fermi level: -2.84142

 Band  Eigenvalues  Occupancy
    0     -5.08210    2.00000
    1     -3.49712    2.00000
    2     -3.18434    1.99790
    3     -2.84163    1.00210
    4     -1.62876    0.00000
    5     -1.42379    0.00000
    6     -1.13851    0.00000
    7      0.97917    0.00000
    8      1.24194    0.00000
    9      1.62243    0.00000

Gap: 1.213 eV
Transition (v -> c):
  (s=0, k=0, n=3, [0.00, 0.00, 0.00]) -> (s=0, k=0, n=4, [0.00, 0.00, 0.00])

Forces in eV/Ang:
  0 Na   -0.76781   -0.39318   -0.27343
  1 Na    0.18058   -0.87265    0.06024
  2 Na    0.89560    0.07324   -0.52908
  3 Na   -0.13329    0.65586   -0.10739
  4 Na   -0.17318    0.66838   -0.09221
  5 Na   -0.57308   -0.18401    0.58122
  6 Na    0.56821    0.05241    0.36248

System changes: positions 

Initializing position-dependent things.

Density initialized from wave functions
           .--------------------------------------.  
          /|                                      |  
         / |                                      |  
        /  |                                      |  
       /   |                                      |  
      /    |                                      |  
     /     |                                      |  
[...]
Dipole moment: (0.029194, -0.015928, 0.045226) |e|*Ang

Energy contributions relative to reference atoms: (reference = -30790.959854)

Kinetic:        +22.755265
Potential:      -19.913595
External:        +0.000000
XC:              -8.564335
Entropy (-ST):   -0.069832
Local:           +0.031735
--------------------------
Free energy:     -5.760762
Extrapolated:    -5.725846

Fermi level: -2.74343

 Band  Eigenvalues  Occupancy
    0     -4.69452    2.00000
    1     -3.31016    1.99998
    2     -3.11462    1.99881
    3     -2.74355    1.00122
    4     -1.64096    0.00000
    5     -1.60559    0.00000
    6     -1.43792    0.00000
    7      1.47289    0.00000
    8      1.72518    0.00000
    9      1.83233    0.00000

Gap: 1.103 eV
Transition (v -> c):
  (s=0, k=0, n=3, [0.00, 0.00, 0.00]) -> (s=0, k=0, n=4, [0.00, 0.00, 0.00])

Forces in eV/Ang:
  0 Na    0.07896    0.03978    0.04427
  1 Na   -0.01285    0.06554    0.00458
  2 Na   -0.03584   -0.03832    0.03593
  3 Na   -0.00217   -0.02786   -0.01541
  4 Na   -0.00032   -0.04134    0.06703
  5 Na    0.01027    0.01408   -0.08657
  6 Na   -0.03833   -0.01180   -0.05113

System changes: positions 

Initializing position-dependent things.

Density initialized from wave functions
           .--------------------------------------.  
          /|                                      |  
         / |                                      |  
        /  |                                      |  
       /   |                                      |  
      /    |                                      |  
     /     |                                      |  
    /      |                                      |  
   /       |                                      |  
  /        |                                      |  
 *         |                                      |  
 |         |                                      |  
 |         |                                      |  
 |         |                                      |  
 |         |        NaNa     Na                   |  
 |         |                  Na                  |  
 |         |                                      |  
 |         |             Na                       |  
 |         |        Na       Na                   |  
 |         |                                      |  
 |         .--------------------------------------.  
 |        /                                      /   
 |       /                                      /    
 |      /                                      /     
 |     /                                      /      
 |    /                                      /       
 |   /                                      /        
 |  /                                      /         
 | /                                      /          
 |/                                      /           
 *--------------------------------------*            

Positions:
   0 Na     6.146363    6.677439    6.293278    ( 0.0000,  0.0000,  0.0000)
   1 Na     8.742285    5.059245    7.784237    ( 0.0000,  0.0000,  0.0000)
   2 Na     9.681532    7.537724    5.696109    ( 0.0000,  0.0000,  0.0000)
   3 Na     9.074840   10.737177    6.682552    ( 0.0000,  0.0000,  0.0000)
   4 Na     6.061960    9.775946    7.812467    ( 0.0000,  0.0000,  0.0000)
   5 Na     6.115834    6.907252    9.739180    ( 0.0000,  0.0000,  0.0000)
   6 Na     9.153257    8.319270    9.000160    ( 0.0000,  0.0000,  0.0000)

Unit cell:
           periodic     x           y           z      points  spacing
  1. axis:    no    16.000000    0.000000    0.000000    64     0.2500
  2. axis:    no     0.000000   16.000000    0.000000    64     0.2500
  3. axis:    no     0.000000    0.000000   16.000000    64     0.2500

  Lengths:  16.000000  16.000000  16.000000
  Angles:   90.000000  90.000000  90.000000

Effective grid spacing dv^(1/3) = 0.2500

                     log10-error:    total        iterations:
           time      wfs    density  energy       fermi  poisson
iter:   1  18:44:40          +inf    -5.732559    2      1      
iter:   2  18:44:41         -2.46    -5.732483    2      1      
iter:   3  18:44:42         -2.82    -5.732474    2      1      
iter:   4  18:44:44         -3.08    -5.732472    2      1      
iter:   5  18:44:45         -3.56    -5.732472    2      1      
iter:   6  18:44:46         -3.81    -5.732472    2      1      
iter:   7  18:44:47         -4.47    -5.732472    1      1      

Converged after 7 iterations.

Dipole moment: (0.031211, -0.016550, 0.043199) |e|*Ang

Energy contributions relative to reference atoms: (reference = -30790.959854)

Kinetic:        +23.126095
Potential:      -20.205570
External:        +0.000000
XC:              -8.650234
Entropy (-ST):   -0.069794
Local:           +0.032134
--------------------------
Free energy:     -5.767369
Extrapolated:    -5.732472

Fermi level: -2.74257

 Band  Eigenvalues  Occupancy
    0     -4.70508    2.00000
    1     -3.31058    1.99998
    2     -3.11814    1.99891
    3     -2.74268    1.00112
    4     -1.63518    0.00000
    5     -1.60531    0.00000
    6     -1.43176    0.00000
    7      1.44118    0.00000
    8      1.70791    0.00000
    9      1.81324    0.00000

Gap: 1.107 eV
Transition (v -> c):
  (s=0, k=0, n=3, [0.00, 0.00, 0.00]) -> (s=0, k=0, n=4, [0.00, 0.00, 0.00])

Forces in eV/Ang:
  0 Na    0.07196    0.03898    0.04347
  1 Na   -0.01713    0.05425    0.00839
  2 Na   -0.02018   -0.03458    0.01524
  3 Na   -0.00669   -0.01911   -0.01861
  4 Na    0.00120   -0.04066    0.06381
  5 Na    0.01237    0.01543   -0.08036
  6 Na   -0.04132   -0.01444   -0.03266

System changes: positions 

Initializing position-dependent things.

Density initialized from wave functions
           .--------------------------------------.  
          /|                                      |  
         / |                                      |  
        /  |                                      |  
       /   |                                      |  
      /    |                                      |  
     /     |                                      |  
    /      |                                      |  
   /       |                                      |  
  /        |                                      |  
 *         |                                      |  
 |         |                                      |  
 |         |                                      |  
 |         |                                      |  
 |         |        NaNa     Na                   |  
 |         |                  Na                  |  
 |         |                                      |  
 |         |             Na                       |  
 |         |        Na       Na                   |  
 |         |                                      |  
 |         .--------------------------------------.  
 |        /                                      /   
 |       /                                      /    
 |      /                                      /     
 |     /                                      /      
 |    /                                      /       
 |   /                                      /        
 |  /                                      /         
 | /                                      /          
 |/                                      /           
 *--------------------------------------*            

Positions:
   0 Na     6.167280    6.691051    6.289879    ( 0.0000,  0.0000,  0.0000)
   1 Na     8.747486    5.069116    7.793953    ( 0.0000,  0.0000,  0.0000)
   2 Na     9.659391    7.527041    5.708177    ( 0.0000,  0.0000,  0.0000)
   3 Na     9.076327   10.726766    6.678149    ( 0.0000,  0.0000,  0.0000)
   4 Na     6.059580    9.776499    7.830983    ( 0.0000,  0.0000,  0.0000)
   5 Na     6.113265    6.899584    9.722957    ( 0.0000,  0.0000,  0.0000)
   6 Na     9.152356    8.323564    8.984173    ( 0.0000,  0.0000,  0.0000)

Unit cell:
           periodic     x           y           z      points  spacing
  1. axis:    no    16.000000    0.000000    0.000000    64     0.2500
  2. axis:    no     0.000000   16.000000    0.000000    64     0.2500
  3. axis:    no     0.000000    0.000000   16.000000    64     0.2500

  Lengths:  16.000000  16.000000  16.000000
  Angles:   90.000000  90.000000  90.000000

Effective grid spacing dv^(1/3) = 0.2500

                     log10-error:    total        iterations:
           time      wfs    density  energy       fermi  poisson
iter:   1  18:44:50          +inf    -5.738258    2      1      
iter:   2  18:44:51         -2.48    -5.738188    2      1      
iter:   3  18:44:52         -2.82    -5.738178    2      1      
iter:   4  18:44:54         -3.08    -5.738177    2      1      
iter:   5  18:44:55         -3.55    -5.738176    2      1      
iter:   6  18:44:56         -3.83    -5.738176    2      1      
iter:   7  18:44:57         -4.46    -5.738176    1      1      

Converged after 7 iterations.

Dipole moment: (0.032677, -0.016303, 0.041025) |e|*Ang

Energy contributions relative to reference atoms: (reference = -30790.959854)

Kinetic:        +23.618772
Potential:      -20.593575
External:        +0.000000
XC:              -8.761174
Entropy (-ST):   -0.069738
Local:           +0.032669
--------------------------
Free energy:     -5.773045
Extrapolated:    -5.738176

Fermi level: -2.74040

 Band  Eigenvalues  Occupancy
    0     -4.71778    2.00000
    1     -3.31141    1.99998
    2     -3.12322    1.99905
    3     -2.74049    1.00097
    4     -1.62868    0.00000
    5     -1.60366    0.00000
    6     -1.42480    0.00000
    7      1.40054    0.00000
    8      1.69007    0.00000
    9      1.79110    0.00000

Gap: 1.112 eV
Transition (v -> c):
  (s=0, k=0, n=3, [0.00, 0.00, 0.00]) -> (s=0, k=0, n=4, [0.00, 0.00, 0.00])

Forces in eV/Ang:
  0 Na    0.06204    0.03790    0.03825
  1 Na   -0.01944    0.03856    0.01461
  2 Na   -0.00429   -0.02945   -0.00799
  3 Na   -0.01128   -0.01015   -0.02203
  4 Na    0.00219   -0.03623    0.05950
  5 Na    0.01242    0.01445   -0.07001
  6 Na   -0.04151   -0.01511   -0.01222

System changes: positions 

Initializing position-dependent things.

Density initialized from wave functions
           .--------------------------------------.  
          /|                                      |  
         / |                                      |  
        /  |                                      |  
       /   |                                      |  
      /    |                                      |  
     /     |                                      |  
    /      |                                      |  
   /       |                                      |  
  /        |                                      |  
 *         |                                      |  
 |         |                                      |  
 |         |                                      |  
 |         |                                      |  
 |         |        NaNa     Na                   |  
 |         |                  Na                  |  
 |         |                                      |  
 |         |              Na                      |  
 |         |        Na       Na                   |  
 |         |                                      |  
 |         .--------------------------------------.  
 |        /                                      /   
 |       /                                      /    
 |      /                                      /     
 |     /                                      /      
 |    /                                      /       
 |   /                                      /        
 |  /                                      /         
 | /                                      /          
 |/                                      /           
 *--------------------------------------*            

Positions:
   0 Na     6.179568    6.698715    6.289740    ( 0.0000,  0.0000,  0.0000)
   1 Na     8.749838    5.076027    7.798526    ( 0.0000,  0.0000,  0.0000)
   2 Na     9.647510    7.520754    5.715682    ( 0.0000,  0.0000,  0.0000)
   3 Na     9.077078   10.720702    6.675673    ( 0.0000,  0.0000,  0.0000)
   4 Na     6.058371    9.775547    7.841917    ( 0.0000,  0.0000,  0.0000)
   5 Na     6.112169    6.896338    9.712492    ( 0.0000,  0.0000,  0.0000)
   6 Na     9.150932    8.325297    8.974386    ( 0.0000,  0.0000,  0.0000)

Unit cell:
           periodic     x           y           z      points  spacing
  1. axis:    no    16.000000    0.000000    0.000000    64     0.2500
  2. axis:    no     0.000000   16.000000    0.000000    64     0.2500
  3. axis:    no     0.000000    0.000000   16.000000    64     0.2500

  Lengths:  16.000000  16.000000  16.000000
  Angles:   90.000000  90.000000  90.000000

Effective grid spacing dv^(1/3) = 0.2500

                     log10-error:    total        iterations:
           time      wfs    density  energy       fermi  poisson
iter:   1  18:45:00          +inf    -5.741019    2      1      
iter:   2  18:45:01         -2.71    -5.740995    2      1      
iter:   3  18:45:02         -3.02    -5.740992    2      1      
iter:   4  18:45:03         -3.29    -5.740992    2      1      
iter:   5  18:45:05         -3.75    -5.740992    2      1      
iter:   6  18:45:06         -4.06    -5.740992    1      1      

Converged after 6 iterations.

Dipole moment: (0.033244, -0.015823, 0.039738) |e|*Ang

Energy contributions relative to reference atoms: (reference = -30790.959854)

Kinetic:        +23.958843
Potential:      -20.861211
External:        +0.000000
XC:              -8.836819
Entropy (-ST):   -0.069700
Local:           +0.033045
--------------------------
Free energy:     -5.775842
Extrapolated:    -5.740992

Fermi level: -2.73866

 Band  Eigenvalues  Occupancy
    0     -4.72618    2.00000
    1     -3.31201    1.99998
    2     -3.12685    1.99915
    3     -2.73875    1.00087
    4     -1.62465    0.00000
    5     -1.60207    0.00000
    6     -1.42036    0.00000
    7      1.37319    0.00000
    8      1.67938    0.00000
    9      1.77689    0.00000

Gap: 1.114 eV
Transition (v -> c):
  (s=0, k=0, n=3, [0.00, 0.00, 0.00]) -> (s=0, k=0, n=4, [0.00, 0.00, 0.00])

Forces in eV/Ang:
  0 Na    0.05513    0.03722    0.03315
  1 Na   -0.02003    0.02752    0.01928
  2 Na    0.00529   -0.02566   -0.02257
  3 Na   -0.01401   -0.00495   -0.02412
  4 Na    0.00264   -0.03188    0.05633
  5 Na    0.01161    0.01267   -0.06213
  6 Na   -0.04060   -0.01461    0.00046

Timing:                                       incl.     excl.
--------------------------------------------------------------------
Basic WFS set positions:                      0.074     0.040   0.0% |
 Redistribute:                                0.034     0.034   0.0% |
Basis functions set positions:                3.322     3.322   0.3% |
Forces:                                      55.084    10.463   1.1% |
 LCAO forces:                                44.621     0.045   0.0% |
  Atomic Hamiltonian force:                   0.174     0.174   0.0% |
  Initial:                                    0.011     0.001   0.0% |
   Get density matrix:                        0.010     0.010   0.0% |
  Paw correction:                             0.151     0.151   0.0% |
  Potential:                                 41.460    41.460   4.3% |-|
  TCI derivative:                             2.778     2.778   0.3% |
  Wait for sum:                               0.001     0.001   0.0% |
LCAO WFS Initialize:                        115.981     0.093   0.0% |
 Density initialized from wave functions:    17.610     8.446   0.9% |
  Calculate density matrix:                   0.009     0.009   0.0% |
  Construct density:                          9.153     9.153   0.9% |
  Symmetrize density:                         0.002     0.002   0.0% |
 Hamiltonian:                                98.278     0.014   0.0% |
  Atomic:                                    13.079     0.110   0.0% |
   XC Correction:                            12.969    12.969   1.3% ||
  Calculate atomic Hamiltonians:              0.816     0.816   0.1% |
  Communicate:                                0.001     0.001   0.0% |
  Hartree integrate/restrict:                 4.601     4.601   0.5% |
  Initialize Hamiltonian:                     0.000     0.000   0.0% |
  Poisson:                                   25.049     1.418   0.1% |
   Communicate bwd 0:                         2.888     2.888   0.3% |
   Communicate bwd 1:                         1.781     1.781   0.2% |
   Communicate fwd 0:                         2.725     2.725   0.3% |
   Communicate fwd 1:                         3.115     3.115   0.3% |
   fft:                                       3.868     3.868   0.4% |
   fft2:                                      9.253     9.253   1.0% |
  XC 3D grid:                                54.120    54.120   5.6% |-|
  vbar:                                       0.598     0.598   0.1% |
P tci:                                        1.514     1.514   0.2% |
Redistribute:                                 0.019     0.019   0.0% |
SCF-cycle:                                  751.290     0.497   0.1% |
 Density:                                   107.492     0.017   0.0% |
  Atomic density matrices:                    0.614     0.614   0.1% |
  Mix:                                       49.831    49.831   5.2% |-|
  Multipole moments:                          0.151     0.151   0.0% |
  Normalize:                                  0.209     0.209   0.0% |
  Pseudo density:                            56.671     0.490   0.1% |
   Calculate density matrix:                  0.031     0.031   0.0% |
   Construct density:                        56.133    56.133   5.8% |-|
   Symmetrize density:                        0.016     0.016   0.0% |
 Hamiltonian:                               584.891     0.084   0.0% |
  Atomic:                                    77.901     0.658   0.1% |
   XC Correction:                            77.243    77.243   8.0% |--|
  Calculate atomic Hamiltonians:              4.873     4.873   0.5% |
  Communicate:                                0.006     0.006   0.0% |
  Hartree integrate/restrict:                28.758    28.758   3.0% ||
  Poisson:                                  148.039     8.424   0.9% |
   Communicate bwd 0:                        17.261    17.261   1.8% ||
   Communicate bwd 1:                        10.573    10.573   1.1% |
   Communicate fwd 0:                        15.835    15.835   1.6% ||
   Communicate fwd 1:                        18.036    18.036   1.9% ||
   fft:                                      22.991    22.991   2.4% ||
   fft2:                                     54.921    54.921   5.7% |-|
  XC 3D grid:                               321.688   321.688  33.4% |------------|
  vbar:                                       3.542     3.542   0.4% |
 LCAO eigensolver:                           58.409     0.072   0.0% |
  Calculate projections:                      0.041     0.041   0.0% |
  DenseAtomicCorrection:                      0.239     0.239   0.0% |
  Distribute overlap matrix:                  0.009     0.009   0.0% |
  Orbital Layouts:                            0.267     0.267   0.0% |
  Potential matrix:                          57.782    57.782   6.0% |-|
ST tci:                                       0.444     0.444   0.0% |
Set symmetry:                                 0.001     0.001   0.0% |
TCI: Evaluate splines:                        0.027     0.027   0.0% |
mktci:                                        0.146     0.146   0.0% |
Other:                                       36.117    36.117   3.7% ||
--------------------------------------------------------------------
Total:                                                964.019 100.0%

Date: Thu Feb  4 18:45:07 2021
