73
Lattice="8.956369831609006 0.0 0.0 0.0 8.956369831609006 0.0 0.0 0.0 8.956369831609006" Properties=species:S:1:pos:R:3:momenta:R:3:forces:R:3 water=T with=T unit=T cell:=T ABC=T angstrom=T 12.42=T energy=-336.2878527362188 pbc="T T T"
O        4.26049996       1.65881367      -2.79391089      -0.55029552      -1.14177274       0.58789834      -0.12609733       0.54553521      -0.91616492
O        3.20697303      -3.19618026       0.13597349       0.25156389      -0.51982359       0.63800682      -0.12388824      -0.19468617      -0.00477582
O       -0.48606151       2.27169629      -2.50921033      -0.90834708       0.43817757       1.01890328       0.14821215      -0.12546311      -1.15877652
O        4.56845323      -0.86206015       0.52987622       1.05867943      -0.68020541      -0.47775196       0.06510464      -0.46087512      -0.03847269
O        7.28850331      -1.09716920      -0.05513998       1.02581956       0.35545750      -0.51678745      -0.38523064       0.73038908       0.72506657
O        4.71828769       1.78873418       1.78137547       0.19108486       0.51030108      -0.06876439       0.02353608      -0.12232745      -0.59060566
O        1.72063883      -3.62877929       2.23049319      -1.09740983       0.04227885      -0.38420598      -0.03868998       0.52902719       0.29800381
O        6.02618473       3.36592977      -2.19195917      -0.04232208      -0.46222101      -0.78893209       1.41627496       1.07647138       0.18235058
O        6.30206699      -3.59858747      -3.76929082       0.01432631       0.00533940      -2.10949112      -0.77389219      -1.57739825      -0.18345385
O        2.34190173       2.66906929       3.00753362      -1.37536912       0.01937216       0.07603165       0.36462494      -1.17664357       0.08949206
O        1.97472168      -3.08151153      -2.18626521       0.06645849      -0.22521687       0.00744777      -1.07509172      -0.26113612       0.71362345
O        0.21376953       0.16384388       4.27499779       0.22632556      -0.33131381      -0.73342424       0.08613340      -0.28595230       0.19261089
O        4.46649281      -2.07171044       5.97416861      -0.33497886       0.13047288      -0.73827987       0.89514130      -0.51712771      -0.10549279
O       -0.01882402       1.72527496       2.03040601       0.07946103      -1.40678448       0.71018267      -0.74427943      -0.03330231      -0.23875916
O        2.63607602       0.25669613       7.47668914      -0.26486265      -0.06192082      -0.42177778      -1.13841238      -1.69745792       0.74826767
O        5.45369890       4.54081004       0.31626285      -0.52031250      -0.59565754       0.02056572      -1.04745368      -1.60253801       0.68734116
O        8.36414556      -2.15426524       6.21462649       0.66450318      -0.49807794      -0.23851335       0.66372750       0.07795618       0.47656175
O        5.93980071      -0.01818020       4.74955058       0.14051578       0.81448575       0.53241035      -1.07488401      -0.22220710      -0.14444771
O        2.76810386      -1.76652215       3.95844441      -0.92271939       0.41948867       1.14476213      -2.16966523       1.42904804      -2.58594372
O        8.30357526      -2.25564026       2.27366989      -0.01857528       0.50150966      -1.31117280       0.42809363       0.10954710      -0.48586095
O        6.76432140       2.53237950       3.51324119       0.81769138      -0.65024402       0.41516041       0.46333395       1.06426429       0.53857844
O        2.01870251       3.31070776      -3.18666179      -0.40900247       0.92815090      -1.00546061      -0.44798252       0.16896686      -0.59610611
O        9.23358057       0.98248771      -0.46467040      -0.47871618       0.02298343      -0.43515057      -0.74273269      -0.81178582       0.08975687
O        5.82256490      -2.95044386       2.65859130       0.59520137       0.34972140      -1.01737124      -0.09253456      -0.55992826      -0.04397987
H        3.46458319       2.20525825      -3.14114048      -0.12756660       0.16329562      -0.13122846       0.31666157      -0.20631883       0.39163546
H        3.78259686       1.01999439      -2.18092157      -0.06484656       0.06312950      -0.15429840      -0.40222815      -0.03230721       0.03802440
H        3.58593593      -2.25457502       0.24657318      -0.13978721       0.04469079      -0.12969373      -0.05209429      -0.46505034      -0.36119764
H        2.69372745      -3.32769939      -0.74410989      -0.04135587       0.18650704       0.26376424      -0.09291667       0.61348906       0.31703971
H       -0.30421516       1.68906823      -3.32480991       0.27738993       0.17114022       0.05313453      -0.30419016       0.13938956       0.58815479
H        7.48433876       2.55322832      -2.53258490       0.11088418       0.01042273       0.00626517       0.37033759       0.08965723       0.24988187
H        4.18511934      -0.44218225      -0.27401036       0.08758828      -0.28879373       0.02816029      -0.58304317       0.25124090      -0.54713295
H        5.44673406      -1.23855079       0.20327201      -0.04632869       0.03124830      -0.32440984       0.41440917       0.28814513       0.07340349
H        7.45148896      -1.60693944      -0.87270867      -0.04617067      -0.08561531      -0.13621595       0.51034380      -0.69662649      -0.68189968
H        7.72074498      -1.57735419       0.73044968       0.02892928      -0.35309219      -0.04499341       0.12645748      -0.07688485      -0.12361115
H        4.59833622       1.27251893       0.92820224       0.25390041       0.08273855      -0.39127451       0.18313902       0.21953312       0.63078689
H        3.80665002       2.15645981       2.00746425       0.02583961       0.16684756      -0.02223163      -0.37707290      -0.12031204       0.43036285
H        2.18223395      -3.36242918       1.37543617      -0.05868811       0.23491951      -0.14450280       0.40972657      -0.23451048      -0.11669259
H        0.85748462      -3.11730992       2.15347878      -0.21006594       0.08648605       0.16844323      -0.47928661      -0.45436654       0.19835248
H        5.96750389       3.89724327      -1.33194996      -0.27745242      -0.16955160      -0.06630793      -0.26331153      -0.32581793       0.26290432
H        5.25352977       2.73436727      -2.27032222      -0.17598300       0.06872510      -0.20368305      -0.89038594      -0.68909776      -0.20374204
H        7.10233742      -3.14152555      -3.43846942       0.19984692       0.04135517      -0.37400224       1.34081782       0.73798941       0.36865240
H        6.22144369      -4.47203437      -3.15299005      -0.10793429       0.53264666      -0.25379587      -0.21677061       0.32715791      -0.34631028
H        2.38444253       3.57403166       2.64177111       0.32803959      -0.00013927       0.19604422      -0.53916176       1.19690983      -0.31415035
H        1.52446313       2.26562187       2.54907423      -0.02374125      -0.12589888      -0.07989300      -0.15392337       0.32707159       0.05475089
H        2.86885941      -2.76923707      -2.36489541      -0.29768054      -0.05403136       0.09317749       1.72480983       1.24332096      -0.79983451
H        2.01654550       4.99837723      -2.66539780       0.29171731       0.00082700       0.00542924      -0.37449945      -0.87367910      -0.33395559
H        1.13650305      -0.20752214       4.28131460       0.14559097       0.14534679       0.13474800       0.11534919      -0.19080506       0.15506791
H        0.14534193       0.54743910       3.34777213       0.16666084       0.03197235       0.17953948      -0.20636226       0.55155054      -0.22166401
H        5.05810254      -1.31071101       5.71266906       0.16599698      -0.05361409       0.32145267      -0.43613499       0.12616038       0.19279587
H        5.20094258      -2.80940306       5.68932391      -0.17082549      -0.13421892      -0.36325901      -0.81627515       0.43470006       0.42018661
H       -0.84758590       2.25243338       2.29171339       0.09051156      -0.51224765       0.13555853       0.60048100      -0.33180216       0.27668015
H        8.78494678       1.44967158       1.04667680      -0.02814133       0.05576022       0.23971841       0.76695005       0.32446711       0.38999499
H        1.82168129       0.51967960       8.06855483      -0.35891100      -0.13330639       0.01333991       0.04369556       0.48909713      -0.22841827
H        2.23438879      -0.60937263       7.13435917       0.33913394      -0.02701180      -0.01518138       0.82886463       0.76660223      -0.02379543
H        5.32201066       3.63898004       0.79942877      -0.14887845       0.12119525      -0.02280704       0.29769650       0.87284783      -0.72067429
H        4.43617082      -4.13556788       0.15883993       0.02185920      -0.04505166       0.13351672       0.98282617       0.39095832       0.21604651
H        0.42053096      -2.27412236       6.33735778       0.17785311      -0.01513193      -0.30197976      -0.80710413      -0.42608513      -0.04482355
H        8.30480405      -1.24806801       5.83437131      -0.03843625      -0.00885071       0.30341468      -0.12573667       0.36296293      -0.42366448
H        5.16039438       0.55200832       5.07434764      -0.11535174       0.25561220       0.12553867       0.37152842       0.18568806       0.39475404
H        6.39647200       0.63441258       4.18132873       0.03728314       0.02257575      -0.08976488       0.78731156       0.47748052       0.03224534
H        3.38691343      -2.13165980       4.58735406      -0.08444912       0.14756025       0.10844314       1.23221988      -1.08356610       1.55295578
H        2.33208357      -2.46477297       3.31907238       0.13911632      -0.28764673      -0.10550471       0.75757780       0.00789672       0.74599307
H        7.35437768      -2.60506916       2.48393983      -0.33536598      -0.14949622      -0.13071119       0.10998878       0.23680135       0.18337318
H       -0.33199627      -1.63653092       2.98555320       0.19631653       0.13698701       0.07995106      -0.53096894      -0.00480407       0.04263689
H        6.55952869       3.50088697       3.71993845       0.15536425       0.06279624       0.22530770       0.28547121      -0.87785124      -0.01657650
H        5.97838386       2.22739576       3.01166889      -0.12792967      -0.03576732      -0.02735031      -0.72886944      -0.04671427      -0.73662810
H        1.84618702       3.19846919       4.76880367      -0.09311999       0.03250730      -0.06277416       0.36666189      -0.01284784       0.36137628
H        1.11743222       3.07920864      -2.78714985       0.01462658       0.13876446       0.16132866       0.23759548      -0.05109419      -0.12873348
H        8.52865724       0.21309292      -0.35699412      -0.11256380       0.03051796       0.19700842       0.74601841       0.86386867      -0.55523366
H        8.94449376       1.59973393      -1.28826819      -0.02186761       0.17167491       0.10776731      -0.30957797      -0.90071381       0.63047266
H        5.95879612      -3.29332348       3.61277774       0.14766808       0.14647485      -0.00725946      -0.18473898      -0.09651409      -0.35728339
H        5.64161660      -3.74030323       2.02617213       0.06252474       0.03770811       0.20355726       0.20765074       0.96596203       0.21124113
Na       4.62129680      -0.70691542       2.81996432      -0.06469892      -0.01347669       1.39307066      -0.16368732      -0.32235963       0.12076112
