                     log10-error:    total        iterations:
           time      wfs    density  energy       poisson
iter:   1  22:28:59                  -3.725502           

  ___ ___ ___ _ _ _  
 |   |   |_  | | | | 
 | | | | | . | | | | 
 |__ |  _|___|_____|  20.10.0
 |___|_|             

User:   eliasel@hebbe12-1
Date:   Fri Feb 26 22:29:00 2021
Arch:   x86_64
Pid:    16238
Python: 3.7.4
gpaw:   /apps/Hebbe7/software/MPI/GCC/8.3.0/OpenMPI/3.1.4/GPAW/20.10.0-ASE-3.20.1-Python-3.7.4/lib/python3.7/site-packages/gpaw
_gpaw:  /apps/Hebbe7/software/MPI/GCC/8.3.0/OpenMPI/3.1.4/GPAW/20.10.0-ASE-3.20.1-Python-3.7.4/lib/python3.7/site-packages/
        _gpaw.cpython-37m-x86_64-linux-gnu.so
ase:    /apps/Hebbe7/software/MPI/GCC/8.3.0/OpenMPI/3.1.4/ASE/3.20.1-Python-3.7.4/lib/python3.7/site-packages/ase (version 3.20.1)
numpy:  /apps/Hebbe7/software/MPI/GCC/8.3.0/OpenMPI/3.1.4/SciPy-bundle/2019.10-Python-3.7.4/lib/python3.7/site-packages/numpy (version 1.17.3)
scipy:  /apps/Hebbe7/software/MPI/GCC/8.3.0/OpenMPI/3.1.4/SciPy-bundle/2019.10-Python-3.7.4/lib/python3.7/site-packages/scipy (version 1.3.1)
libxc:  4.3.4
units:  Angstrom and eV
cores: 20
OMP_NUM_THREADS: 1

Input parameters:
  kpts: [8 8 8]
  mode: {ecut: 300.0,
         gammacentered: False,
         name: pw}
  occupations: {fixmagmom: False,
                name: fermi-dirac,
                width: 0.01}
  random: True
  xc: PBE

potential:
System changes: positions, numbers, cell, pbc, initial_charges, initial_magmoms 

Initialize ...

potential:
potential:
potential:
potential:
potential:
potential:
potential:
potential:
potential:
potential:
potential:
potential:
potential:
potential:
potential:
potential:
potential:
potential:
potential:
Al-setup:
  name: Aluminium
  id: 0292cae29f5d6237e50f6abdd43a7bdd
  Z: 13.0
  valence: 3
  core: 10
  charge: 0.0
  file: /apps/Hebbe7/software/Core/GPAW-setups/0.9.20000/Al.PBE.gz
  compensation charges: gauss, rc=0.34, lmax=2
  cutoffs: 1.91(filt), 2.36(core),
  valence states:
                energy  radius
    3s(2.00)    -7.753   1.085
    3p(1.00)    -2.712   1.085
    *s          19.459   1.085
    *p          24.499   1.085
    *d           0.000   1.085

  Using partial waves for Al as LCAO basis

Reference energy: -6603.423265

Spin-paired calculation

iter:   2  22:29:02  -2.68  -0.93    -3.726802           
Convergence criteria:
  Maximum total energy change: 0.0005 eV / electron
  Maximum integral of absolute density change: 0.0001 electrons
  Maximum integral of absolute eigenstate change: 4e-08 eV^2
  Maximum number of iterations: 333

Symmetries present (total): 48

  ( 1  0  0)  ( 1  0  0)  ( 1  0  0)  ( 1  0  0)  ( 1  0 -1)  ( 1  0 -1)
  ( 1  0 -1)  ( 1 -1  0)  ( 0  1  0)  ( 0  0  1)  ( 1  0  0)  ( 1 -1  0)
  ( 1 -1  0)  ( 1  0 -1)  ( 0  0  1)  ( 0  1  0)  ( 1 -1  0)  ( 1  0  0)

  ( 1  0 -1)  ( 1  0 -1)  ( 1 -1  0)  ( 1 -1  0)  ( 1 -1  0)  ( 1 -1  0)
  ( 0  1 -1)  ( 0  0 -1)  ( 1  0  0)  ( 1  0 -1)  ( 0 -1  1)  ( 0 -1  0)
  ( 0  0 -1)  ( 0  1 -1)  ( 1  0 -1)  ( 1  0  0)  ( 0 -1  0)  ( 0 -1  1)

  ( 0  1  0)  ( 0  1  0)  ( 0  1  0)  ( 0  1  0)  ( 0  1 -1)  ( 0  1 -1)
  ( 1  0  0)  ( 0  1 -1)  ( 0  0  1)  (-1  1  0)  ( 1  0 -1)  ( 0  1  0)
  ( 0  0  1)  (-1  1  0)  ( 1  0  0)  ( 0  1 -1)  ( 0  0 -1)  (-1  1  0)

  ( 0  1 -1)  ( 0  1 -1)  ( 0  0  1)  ( 0  0  1)  ( 0  0  1)  ( 0  0  1)
  ( 0  0 -1)  (-1  1  0)  ( 1  0  0)  ( 0  1  0)  ( 0 -1  1)  (-1  0  1)
  ( 1  0 -1)  ( 0  1  0)  ( 0  1  0)  ( 1  0  0)  (-1  0  1)  ( 0 -1  1)

  ( 0  0 -1)  ( 0  0 -1)  ( 0  0 -1)  ( 0  0 -1)  ( 0 -1  1)  ( 0 -1  1)
  ( 1  0 -1)  ( 0  1 -1)  ( 0 -1  0)  (-1  0  0)  ( 1 -1  0)  ( 0  0  1)
  ( 0  1 -1)  ( 1  0 -1)  (-1  0  0)  ( 0 -1  0)  ( 0 -1  0)  (-1  0  1)

  ( 0 -1  1)  ( 0 -1  1)  ( 0 -1  0)  ( 0 -1  0)  ( 0 -1  0)  ( 0 -1  0)
  ( 0 -1  0)  (-1  0  1)  ( 1 -1  0)  ( 0  0 -1)  ( 0 -1  1)  (-1  0  0)
  ( 1 -1  0)  ( 0  0  1)  ( 0 -1  1)  (-1  0  0)  ( 1 -1  0)  ( 0  0 -1)

  (-1  1  0)  (-1  1  0)  (-1  1  0)  (-1  1  0)  (-1  0  1)  (-1  0  1)
  ( 0  1  0)  ( 0  1 -1)  (-1  0  1)  (-1  0  0)  ( 0  0  1)  ( 0 -1  1)
  ( 0  1 -1)  ( 0  1  0)  (-1  0  0)  (-1  0  1)  ( 0 -1  1)  ( 0  0  1)

  (-1  0  1)  (-1  0  1)  (-1  0  0)  (-1  0  0)  (-1  0  0)  (-1  0  0)
  (-1  1  0)  (-1  0  0)  ( 0  0 -1)  ( 0 -1  0)  (-1  1  0)  (-1  0  1)
  (-1  0  0)  (-1  1  0)  ( 0 -1  0)  ( 0  0 -1)  (-1  0  1)  (-1  1  0)
Note: your k-points are not as symmetric as your crystal!

512 k-points: 8 x 8 x 8 Monkhorst-Pack grid
60 k-points in the irreducible part of the Brillouin zone
       k-points in crystal coordinates                weights
   0:     0.06250000    0.06250000   -0.06250000          6/512
   1:     0.06250000    0.06250000    0.06250000          2/512
   2:     0.18750000   -0.06250000   -0.06250000          6/512
   3:     0.18750000    0.06250000   -0.18750000         12/512
   4:     0.18750000    0.06250000   -0.06250000         12/512
   5:     0.18750000    0.06250000    0.06250000          6/512
   6:     0.18750000    0.18750000   -0.18750000          6/512
   7:     0.18750000    0.18750000   -0.06250000          6/512
   8:     0.18750000    0.18750000    0.06250000          6/512
   9:     0.18750000    0.18750000    0.18750000          2/512
          ...
  59:     0.43750000    0.43750000    0.43750000          2/512

Wave functions: Plane wave expansion
  Cutoff energy: 300.000 eV
  Number of coefficients (min, max): 178, 202
  Pulay-stress correction: 0.000000 eV/Ang^3 (de/decut=0.000000)
  Using FFTW library
  ScaLapack parameters: grid=1x1, blocksize=None
  Wavefunction extrapolation:
    Improved wavefunction reuse through dual PAW basis 

  Fermi-Dirac: width=0.0100 eV

Eigensolver
   Davidson(niter=2, smin=None, normalize=True) 

Densities:
  Coarse grid: 12*12*12 grid
  Fine grid: 24*24*24 grid
  Total Charge: 0.000000 

Density mixing:
  Method: separate
  Backend: pulay
  Linear mixing parameter: 0.05
  Mixing with 5 old densities
  Damping of long wave oscillations: 50 

Hamiltonian:
  XC and Coulomb potentials evaluated on a 24*24*24 grid
  Using the PBE Exchange-Correlation functional
 

XC parameters: PBE with 2 nearest neighbor stencil

Memory estimate:
  Process memory now: 112.69 MiB
  Calculator: 1.12 MiB
    Density: 0.68 MiB
      Arrays: 0.34 MiB
      Localized functions: 0.21 MiB
      Mixer: 0.13 MiB
    Hamiltonian: 0.23 MiB
      Arrays: 0.22 MiB
      XC: 0.00 MiB
      Poisson: 0.00 MiB
      vbar: 0.00 MiB
    Wavefunctions: 0.20 MiB
      Arrays psit_nG: 0.04 MiB
      Eigensolver: 0.03 MiB
      Projections: 0.00 MiB
      Projectors: 0.06 MiB
      PW-descriptor: 0.08 MiB

Total number of cores used: 20
Parallelization over k-points: 20

Number of atoms: 1
Number of atomic orbitals: 4
Number of bands in calculation: 4
Number of valence electrons: 3
Bands to converge: occupied

... initialized

Initializing position-dependent things.

Density initialized from atomic densities
Creating initial wave functions:
  4 bands from LCAO basis set

                
                
                
       Al       
                
                
                
                

Positions:
   0 Al     0.000000    0.000000    0.000000    ( 0.0000,  0.0000,  0.0000)

Unit cell:
           periodic     x           y           z      points  spacing
  1. axis:    yes    0.000000    2.025000    2.025000    12     0.1949
  2. axis:    yes    2.025000    0.000000    2.025000    12     0.1949
  3. axis:    yes    2.025000    2.025000    0.000000    12     0.1949

  Lengths:   2.863782   2.863782   2.863782
  Angles:   60.000000  60.000000  60.000000

Effective grid spacing dv^(1/3) = 0.2126

iter:   3  22:29:06  -2.62  -0.95    -3.728484           
                     log10-error:    total        iterations:
           time      wfs    density  energy       poisson
iter:   1  22:29:08                  -3.739178           
iter:   4  22:29:09  -3.79  -1.22    -3.726953           
iter:   2  22:29:12  -2.67  -0.93    -3.740393           
iter:   5  22:29:12  -5.53  -2.10    -3.726958           
iter:   3  22:29:15  -2.63  -0.95    -3.741534           
iter:   6  22:29:16  -4.58  -2.17    -3.727142           
iter:   7  22:29:19  -6.25  -2.47    -3.727123           
iter:   4  22:29:19  -3.83  -1.23    -3.739870           
iter:   8  22:29:22  -7.37  -3.83    -3.727123           
iter:   5  22:29:23  -5.46  -2.10    -3.739872           
iter:   9  22:29:26  -8.24  -3.61    -3.727123           
iter:   6  22:29:26  -4.62  -2.18    -3.740049           
fermi level
fermi level
fermi level
fermi level
fermi level
fermi level
fermi level
fermi level
fermi level
fermi level
fermi level
fermi level
fermi level
fermi level
fermi level
fermi level
fermi level
fermi level
fermi level
iter:  10  22:29:29  -9.31  -4.70    -3.727123           

Converged after 10 iterations.

Dipole moment: (-0.000000, -0.000000, -0.000000) |e|*Ang

Energy contributions relative to reference atoms: (reference = -6603.423265)

Kinetic:         +3.464539
Potential:       -1.597106
External:        +0.000000
XC:              -5.587316
Entropy (-ST):   -0.000707
Local:           -0.006886
--------------------------
Free energy:     -3.727476
Extrapolated:    -3.727123

Showing only first 2 kpts
 Kpt  Band  Eigenvalues  Occupancy
  0     0     -3.30682    0.05556
  0     1     14.92185    0.00000
  0     2     17.08396    0.00000

  1     0     -3.80690    0.01852
  1     1     17.07280    0.00000
  1     2     19.11260    0.00000


Fermi level: 7.03506

No gap
fermi level
Writing to bulk.gpw (mode='')


  ___ ___ ___ _ _ _  
 |   |   |_  | | | | 
 | | | | | . | | | | 
 |__ |  _|___|_____|  20.10.0
 |___|_|             

User:   eliasel@hebbe18-1
Date:   Fri Feb 26 22:29:29 2021
Arch:   x86_64
Pid:    27708
Python: 3.7.4
gpaw:   /apps/Hebbe7/software/MPI/GCC/8.3.0/OpenMPI/3.1.4/GPAW/20.10.0-ASE-3.20.1-Python-3.7.4/lib/python3.7/site-packages/gpaw
_gpaw:  /apps/Hebbe7/software/MPI/GCC/8.3.0/OpenMPI/3.1.4/GPAW/20.10.0-ASE-3.20.1-Python-3.7.4/lib/python3.7/site-packages/
        _gpaw.cpython-37m-x86_64-linux-gnu.so
ase:    /apps/Hebbe7/software/MPI/GCC/8.3.0/OpenMPI/3.1.4/ASE/3.20.1-Python-3.7.4/lib/python3.7/site-packages/ase (version 3.20.1)
numpy:  /apps/Hebbe7/software/MPI/GCC/8.3.0/OpenMPI/3.1.4/SciPy-bundle/2019.10-Python-3.7.4/lib/python3.7/site-packages/numpy (version 1.17.3)
scipy:  /apps/Hebbe7/software/MPI/GCC/8.3.0/OpenMPI/3.1.4/SciPy-bundle/2019.10-Python-3.7.4/lib/python3.7/site-packages/scipy (version 1.3.1)
libxc:  4.3.4
units:  Angstrom and eV
cores: 20
OMP_NUM_THREADS: 1

Input parameters:
  convergence: {bands: 8}
  kpts: {npoints: 60,
         path: GXULGK}
  mode: {ecut: 300.0,
         gammacentered: False,
         name: pw}
  nbands: 16
  occupations: {name: fermi-dirac,
                width: 0.01}
  random: True
  symmetry: off
  xc: PBE

Initialize ...

Al-setup:
  name: Aluminium
  id: 0292cae29f5d6237e50f6abdd43a7bdd
  Z: 13.0
  valence: 3
  core: 10
  charge: 0.0
  file: /apps/Hebbe7/software/Core/GPAW-setups/0.9.20000/Al.PBE.gz
  compensation charges: gauss, rc=0.34, lmax=2
  cutoffs: 1.91(filt), 2.36(core),
  valence states:
                energy  radius
    3s(2.00)    -7.753   1.085
    3p(1.00)    -2.712   1.085
    *s          19.459   1.085
    *p          24.499   1.085
    *d           0.000   1.085

  Using partial waves for Al as LCAO basis

Reference energy: -6603.423265

Spin-paired calculation

Convergence criteria:
  Maximum total energy change: 0.0005 eV / electron
  Maximum integral of absolute density change: 0.0001 electrons
  Maximum integral of absolute eigenstate change: 4e-08 eV^2
  Maximum number of iterations: 333

Symmetries present (total): 1

  ( 1  0  0)
  ( 0  1  0)
  ( 0  0  1)

60 k-points
60 k-points in the irreducible part of the Brillouin zone
       k-points in crystal coordinates                weights
   0:     0.00000000    0.00000000    0.00000000       0.01666667
   1:     0.03571429    0.00000000    0.03571429       0.01666667
   2:     0.07142857    0.00000000    0.07142857       0.01666667
   3:     0.10714286    0.00000000    0.10714286       0.01666667
   4:     0.14285714    0.00000000    0.14285714       0.01666667
   5:     0.17857143    0.00000000    0.17857143       0.01666667
   6:     0.21428571    0.00000000    0.21428571       0.01666667
   7:     0.25000000    0.00000000    0.25000000       0.01666667
   8:     0.28571429    0.00000000    0.28571429       0.01666667
   9:     0.32142857    0.00000000    0.32142857       0.01666667
          ...
  59:     0.37500000    0.37500000    0.75000000       0.01666667

Wave functions: Plane wave expansion
  Cutoff energy: 300.000 eV
  Number of coefficients (min, max): 176, 202
  Pulay-stress correction: 0.000000 eV/Ang^3 (de/decut=0.000000)
  Using FFTW library
  ScaLapack parameters: grid=1x1, blocksize=None
  Wavefunction extrapolation:
    Improved wavefunction reuse through dual PAW basis 

  Fermi-Dirac: width=0.0100 eV

Eigensolver
   Davidson(niter=2, smin=None, normalize=True) 

Densities:
  Coarse grid: 12*12*12 grid
  Fine grid: 24*24*24 grid
  Total Charge: 0.000000 

Density mixing:
  Method: separate
  Backend: pulay
  Linear mixing parameter: 0.05
  Mixing with 5 old densities
  Damping of long wave oscillations: 50 

Hamiltonian:
  XC and Coulomb potentials evaluated on a 24*24*24 grid
  Using the PBE Exchange-Correlation functional
 

XC parameters: PBE with 2 nearest neighbor stencil

Memory estimate:
  Process memory now: 116.54 MiB
  Calculator: 1.31 MiB
    Density: 0.68 MiB
      Arrays: 0.34 MiB
      Localized functions: 0.21 MiB
      Mixer: 0.13 MiB
    Hamiltonian: 0.23 MiB
      Arrays: 0.22 MiB
      XC: 0.00 MiB
      Poisson: 0.00 MiB
      vbar: 0.00 MiB
    Wavefunctions: 0.39 MiB
      Arrays psit_nG: 0.15 MiB
      Eigensolver: 0.10 MiB
      Projections: 0.01 MiB
      Projectors: 0.06 MiB
      PW-descriptor: 0.08 MiB

Total number of cores used: 20
Parallelization over k-points: 20

Number of atoms: 1
Number of atomic orbitals: 4
Number of bands in calculation: 16
Number of valence electrons: 3
Bands to converge: 8

... initialized

Initializing position-dependent things.

iter:   7  22:29:30  -6.95  -2.85    -3.740045           
Creating initial wave functions:
  4 bands from LCAO basis set
  12 bands from random numbers

                
                
                
       Al       
                
                
                
                

Positions:
   0 Al     0.000000    0.000000    0.000000    ( 0.0000,  0.0000,  0.0000)

Unit cell:
           periodic     x           y           z      points  spacing
  1. axis:    yes    0.000000    2.025000    2.025000    12     0.1949
  2. axis:    yes    2.025000    0.000000    2.025000    12     0.1949
  3. axis:    yes    2.025000    2.025000    0.000000    12     0.1949

  Lengths:   2.863782   2.863782   2.863782
  Angles:   60.000000  60.000000  60.000000

Effective grid spacing dv^(1/3) = 0.2126

iter:   8  22:29:34  -7.86  -3.80    -3.740045           
iter:   9  22:29:37  -8.26  -3.63    -3.740045           
iter:  10  22:29:41 -10.48  -4.88    -3.740045           

Converged after 10 iterations.

Dipole moment: (-0.000000, -0.000000, -0.000000) |e|*Ang

Energy contributions relative to reference atoms: (reference = -6603.423265)

Kinetic:         +3.389219
Potential:       -1.544331
External:        +0.000000
XC:              -5.577956
Entropy (-ST):   -0.000211
Local:           -0.006871
--------------------------
Free energy:     -3.740150
Extrapolated:    -3.740045

Showing only first 2 kpts
 Kpt  Band  Eigenvalues  Occupancy
  0     0     -3.60866    0.02344
  0     1     16.26019    0.00000
  0     2     17.76828    0.00000

  1     0     -3.89034    0.00781
  1     1     17.89806    0.00000
  1     2     19.31044    0.00000


Fermi level: 7.08617

fermi level
fermi level
fermi level
fermi level
fermi level
fermi level
fermi level
fermi level
fermi level
fermi level
fermi level
fermi level
fermi level
fermi level
fermi level
fermi level
fermi level
fermi level
fermi level
No gap
fermi level
Writing to bulk.gpw (mode='')


  ___ ___ ___ _ _ _  
 |   |   |_  | | | | 
 | | | | | . | | | | 
 |__ |  _|___|_____|  20.10.0
 |___|_|             

User:   eliasel@hebbe12-1
Date:   Fri Feb 26 22:29:41 2021
Arch:   x86_64
Pid:    16238
Python: 3.7.4
gpaw:   /apps/Hebbe7/software/MPI/GCC/8.3.0/OpenMPI/3.1.4/GPAW/20.10.0-ASE-3.20.1-Python-3.7.4/lib/python3.7/site-packages/gpaw
_gpaw:  /apps/Hebbe7/software/MPI/GCC/8.3.0/OpenMPI/3.1.4/GPAW/20.10.0-ASE-3.20.1-Python-3.7.4/lib/python3.7/site-packages/
        _gpaw.cpython-37m-x86_64-linux-gnu.so
ase:    /apps/Hebbe7/software/MPI/GCC/8.3.0/OpenMPI/3.1.4/ASE/3.20.1-Python-3.7.4/lib/python3.7/site-packages/ase (version 3.20.1)
numpy:  /apps/Hebbe7/software/MPI/GCC/8.3.0/OpenMPI/3.1.4/SciPy-bundle/2019.10-Python-3.7.4/lib/python3.7/site-packages/numpy (version 1.17.3)
scipy:  /apps/Hebbe7/software/MPI/GCC/8.3.0/OpenMPI/3.1.4/SciPy-bundle/2019.10-Python-3.7.4/lib/python3.7/site-packages/scipy (version 1.3.1)
libxc:  4.3.4
units:  Angstrom and eV
cores: 20
OMP_NUM_THREADS: 1

Input parameters:
  convergence: {bands: 8}
  kpts: {npoints: 60,
         path: GXULGK}
  mode: {ecut: 300.0,
         gammacentered: False,
         name: pw}
  nbands: 16
  occupations: {name: fermi-dirac,
                width: 0.01}
  random: True
  symmetry: off
  xc: PBE

Initialize ...

Al-setup:
  name: Aluminium
  id: 0292cae29f5d6237e50f6abdd43a7bdd
  Z: 13.0
  valence: 3
  core: 10
  charge: 0.0
  file: /apps/Hebbe7/software/Core/GPAW-setups/0.9.20000/Al.PBE.gz
  compensation charges: gauss, rc=0.34, lmax=2
  cutoffs: 1.91(filt), 2.36(core),
  valence states:
                energy  radius
    3s(2.00)    -7.753   1.085
    3p(1.00)    -2.712   1.085
    *s          19.459   1.085
    *p          24.499   1.085
    *d           0.000   1.085

  Using partial waves for Al as LCAO basis

Reference energy: -6603.423265

Spin-paired calculation

Convergence criteria:
  Maximum total energy change: 0.0005 eV / electron
  Maximum integral of absolute density change: 0.0001 electrons
  Maximum integral of absolute eigenstate change: 4e-08 eV^2
  Maximum number of iterations: 333

Symmetries present (total): 1

  ( 1  0  0)
  ( 0  1  0)
  ( 0  0  1)

60 k-points
60 k-points in the irreducible part of the Brillouin zone
       k-points in crystal coordinates                weights
   0:     0.00000000    0.00000000    0.00000000       0.01666667
   1:     0.03571429    0.00000000    0.03571429       0.01666667
   2:     0.07142857    0.00000000    0.07142857       0.01666667
   3:     0.10714286    0.00000000    0.10714286       0.01666667
   4:     0.14285714    0.00000000    0.14285714       0.01666667
   5:     0.17857143    0.00000000    0.17857143       0.01666667
   6:     0.21428571    0.00000000    0.21428571       0.01666667
   7:     0.25000000    0.00000000    0.25000000       0.01666667
   8:     0.28571429    0.00000000    0.28571429       0.01666667
   9:     0.32142857    0.00000000    0.32142857       0.01666667
          ...
  59:     0.37500000    0.37500000    0.75000000       0.01666667

Wave functions: Plane wave expansion
  Cutoff energy: 300.000 eV
  Number of coefficients (min, max): 176, 202
  Pulay-stress correction: 0.000000 eV/Ang^3 (de/decut=0.000000)
  Using FFTW library
  ScaLapack parameters: grid=1x1, blocksize=None
  Wavefunction extrapolation:
    Improved wavefunction reuse through dual PAW basis 

  Fermi-Dirac: width=0.0100 eV

Eigensolver
   Davidson(niter=2, smin=None, normalize=True) 

Densities:
  Coarse grid: 12*12*12 grid
  Fine grid: 24*24*24 grid
  Total Charge: 0.000000 

Density mixing:
  Method: separate
  Backend: pulay
  Linear mixing parameter: 0.05
  Mixing with 5 old densities
  Damping of long wave oscillations: 50 

Hamiltonian:
  XC and Coulomb potentials evaluated on a 24*24*24 grid
  Using the PBE Exchange-Correlation functional
 

XC parameters: PBE with 2 nearest neighbor stencil

Memory estimate:
  Process memory now: 117.41 MiB
  Calculator: 1.31 MiB
    Density: 0.68 MiB
      Arrays: 0.34 MiB
      Localized functions: 0.21 MiB
      Mixer: 0.13 MiB
    Hamiltonian: 0.23 MiB
      Arrays: 0.22 MiB
      XC: 0.00 MiB
      Poisson: 0.00 MiB
      vbar: 0.00 MiB
    Wavefunctions: 0.39 MiB
      Arrays psit_nG: 0.15 MiB
      Eigensolver: 0.10 MiB
      Projections: 0.01 MiB
      Projectors: 0.06 MiB
      PW-descriptor: 0.08 MiB

Total number of cores used: 20
Parallelization over k-points: 20

Number of atoms: 1
Number of atomic orbitals: 4
Number of bands in calculation: 16
Number of valence electrons: 3
Bands to converge: 8

... initialized

Initializing position-dependent things.

Creating initial wave functions:
  4 bands from LCAO basis set
  12 bands from random numbers

                
                
                
       Al       
                
                
                
                

Positions:
   0 Al     0.000000    0.000000    0.000000    ( 0.0000,  0.0000,  0.0000)

Unit cell:
           periodic     x           y           z      points  spacing
  1. axis:    yes    0.000000    2.025000    2.025000    12     0.1949
  2. axis:    yes    2.025000    0.000000    2.025000    12     0.1949
  3. axis:    yes    2.025000    2.025000    0.000000    12     0.1949

  Lengths:   2.863782   2.863782   2.863782
  Angles:   60.000000  60.000000  60.000000

Effective grid spacing dv^(1/3) = 0.2126

                     log10-error:    total        iterations:
           time      wfs    density  energy       poisson
iter:   1  22:29:46  +2.61           -6.280164           
                     log10-error:    total        iterations:
           time      wfs    density  energy       poisson
iter:   1  22:29:58  +2.61           -6.280083           
iter:   2  22:30:01  +0.62           -6.280734           
iter:   2  22:30:14  +0.62           -6.280652           
iter:   3  22:30:16  -0.76           -6.280739           
iter:   3  22:30:29  -0.76           -6.280657           
iter:   4  22:30:32  -2.23           -6.280739           
iter:   4  22:30:44  -2.23           -6.280657           
iter:   5  22:30:47  -3.75           -6.280739           
iter:   5  22:30:59  -3.75           -6.280657           
iter:   6  22:31:02  -5.33           -6.280739           
iter:   6  22:31:14  -5.33           -6.280657           
iter:   7  22:31:17  -6.91           -6.280739           
iter:   7  22:31:29  -6.91           -6.280657           
iter:   8  22:31:32  -8.28           -6.280739           

Converged after 8 iterations.

Dipole moment: (-0.000000, -0.000000, -0.000000) |e|*Ang

Energy contributions relative to reference atoms: (reference = -6603.423265)

Kinetic:         +0.910592
Potential:       -1.597104
External:        +0.000000
XC:              -5.587311
Entropy (-ST):   -0.000055
Local:           -0.006888
--------------------------
Free energy:     -6.280766
Extrapolated:    -6.280739

Showing only first 2 kpts
 Kpt  Band  Eigenvalues  Occupancy
  0     0     -3.99490    0.03333
  0     1     19.69076    0.00000
  0     2     19.69076    0.00000

  1     0     -3.94884    0.03333
  1     1     19.13901    0.00000
  1     2     19.13901    0.00000


Fermi level: 7.03506

band structure:
band structure:
band structure:
band structure:
band structure:
band structure:
band structure:
band structure:
band structure:
band structure:
band structure:
band structure:
band structure:
band structure:
band structure:
band structure:
band structure:
band structure:
band structure:
No gap
band structure:
Timing:                              incl.     excl.
-----------------------------------------------------------
Hamiltonian:                         0.082     0.000   0.0% |
 Atomic:                             0.074     0.074   0.0% |
  XC Correction:                     0.000     0.000   0.0% |
 Calculate atomic Hamiltonians:      0.001     0.001   0.0% |
 Communicate:                        0.000     0.000   0.0% |
 Initialize Hamiltonian:             0.000     0.000   0.0% |
 Poisson:                            0.000     0.000   0.0% |
 XC 3D grid:                         0.008     0.008   0.0% |
LCAO initialization:                 0.547     0.023   0.0% |
 LCAO eigensolver:                   0.433     0.000   0.0% |
  Calculate projections:             0.000     0.000   0.0% |
  DenseAtomicCorrection:             0.000     0.000   0.0% |
  Distribute overlap matrix:         0.000     0.000   0.0% |
  Orbital Layouts:                   0.378     0.378   0.2% |
  Potential matrix:                  0.015     0.015   0.0% |
  Sum over cells:                    0.040     0.040   0.0% |
 LCAO to grid:                       0.006     0.006   0.0% |
 Set positions (LCAO WFS):           0.084     0.008   0.0% |
  Basic WFS set positions:           0.002     0.002   0.0% |
  Basis functions set positions:     0.000     0.000   0.0% |
  P tci:                             0.009     0.009   0.0% |
  ST tci:                            0.022     0.022   0.0% |
  mktci:                             0.042     0.042   0.0% |
PWDescriptor:                        0.052     0.052   0.0% |
SCF-cycle:                          33.340    10.235   6.3% |--|
 Davidson:                          21.836     0.033   0.0% |
  Apply H:                           0.012     0.012   0.0% |
   HMM T:                            0.001     0.001   0.0% |
  Subspace diag:                     3.197     0.002   0.0% |
   calc_h_matrix:                    1.238     1.225   0.8% |
    Apply H:                         0.013     0.012   0.0% |
     HMM T:                          0.001     0.001   0.0% |
   diagonalize:                      1.956     1.956   1.2% |
   rotate_psi:                       0.002     0.002   0.0% |
  calc. matrices:                    1.411     1.389   0.9% |
   Apply H:                          0.022     0.021   0.0% |
    HMM T:                           0.001     0.001   0.0% |
  diagonalize:                      17.180    17.180  10.6% |---|
  rotate_psi:                        0.002     0.002   0.0% |
 Density:                            0.347     0.000   0.0% |
  Atomic density matrices:           0.011     0.011   0.0% |
  Mix:                               0.270     0.270   0.2% |
  Multipole moments:                 0.001     0.001   0.0% |
  Pseudo density:                    0.064     0.011   0.0% |
   Symmetrize density:               0.053     0.053   0.0% |
 Hamiltonian:                        0.862     0.004   0.0% |
  Atomic:                            0.789     0.789   0.5% |
   XC Correction:                    0.000     0.000   0.0% |
  Calculate atomic Hamiltonians:     0.003     0.003   0.0% |
  Communicate:                       0.002     0.002   0.0% |
  Poisson:                           0.001     0.001   0.0% |
  XC 3D grid:                        0.064     0.064   0.0% |
 Orthonormalize:                     0.060     0.000   0.0% |
  calc_s_matrix:                     0.058     0.058   0.0% |
  inverse-cholesky:                  0.000     0.000   0.0% |
  projections:                       0.001     0.001   0.0% |
  rotate_psi_s:                      0.000     0.000   0.0% |
Set symmetry:                        0.032     0.032   0.0% |
Other:                             127.848   127.848  79.0% |-------------------------------|
-----------------------------------------------------------
Total:                                       161.900 100.0%

Date: Fri Feb 26 22:31:33 2021
Timing:                              incl.     excl.
-----------------------------------------------------------
Hamiltonian:                         0.262     0.000   0.0% |
 Atomic:                             0.083     0.083   0.1% |
  XC Correction:                     0.000     0.000   0.0% |
 Calculate atomic Hamiltonians:      0.000     0.000   0.0% |
 Communicate:                        0.000     0.000   0.0% |
 Initialize Hamiltonian:             0.000     0.000   0.0% |
 Poisson:                            0.000     0.000   0.0% |
 XC 3D grid:                         0.179     0.179   0.1% |
LCAO initialization:                 0.685     0.024   0.0% |
 LCAO eigensolver:                   0.559     0.000   0.0% |
  Calculate projections:             0.000     0.000   0.0% |
  DenseAtomicCorrection:             0.000     0.000   0.0% |
  Distribute overlap matrix:         0.000     0.000   0.0% |
  Orbital Layouts:                   0.521     0.521   0.4% |
  Potential matrix:                  0.031     0.031   0.0% |
  Sum over cells:                    0.006     0.006   0.0% |
 LCAO to grid:                       0.022     0.022   0.0% |
 Set positions (LCAO WFS):           0.081     0.008   0.0% |
  Basic WFS set positions:           0.000     0.000   0.0% |
  Basis functions set positions:     0.000     0.000   0.0% |
  P tci:                             0.010     0.010   0.0% |
  ST tci:                            0.023     0.023   0.0% |
  mktci:                             0.040     0.040   0.0% |
PWDescriptor:                        0.003     0.003   0.0% |
SCF-cycle:                         121.559     2.370   1.9% ||
 Davidson:                         118.823     1.930   1.6% ||
  Apply H:                           0.034     0.030   0.0% |
   HMM T:                            0.003     0.003   0.0% |
  Subspace diag:                    14.493     0.002   0.0% |
   calc_h_matrix:                    1.643     1.616   1.3% ||
    Apply H:                         0.027     0.023   0.0% |
     HMM T:                          0.004     0.004   0.0% |
   diagonalize:                     11.097    11.097   8.9% |---|
   rotate_psi:                       1.751     1.751   1.4% ||
  calc. matrices:                    1.638     1.599   1.3% ||
   Apply H:                          0.039     0.032   0.0% |
    HMM T:                           0.007     0.007   0.0% |
  diagonalize:                      96.693    96.693  77.6% |------------------------------|
  rotate_psi:                        4.035     4.035   3.2% ||
 Orthonormalize:                     0.367     0.000   0.0% |
  calc_s_matrix:                     0.109     0.109   0.1% |
  inverse-cholesky:                  0.145     0.145   0.1% |
  projections:                       0.001     0.001   0.0% |
  rotate_psi_s:                      0.112     0.112   0.1% |
Set symmetry:                        0.000     0.000   0.0% |
Other:                               2.023     2.023   1.6% ||
-----------------------------------------------------------
Total:                                       124.533 100.0%

Date: Fri Feb 26 22:31:33 2021
band structure:
band structure:
band structure:
band structure:
band structure:
band structure:
band structure:
band structure:
band structure:
band structure:
band structure:
band structure:
band structure:
band structure:
band structure:
band structure:
band structure:
band structure:
band structure:
iter:   8  22:31:44  -8.28           -6.280657           

Converged after 8 iterations.

Dipole moment: (-0.000000, -0.000000, -0.000000) |e|*Ang

Energy contributions relative to reference atoms: (reference = -6603.423265)

Kinetic:         +0.848523
Potential:       -1.544329
External:        +0.000000
XC:              -5.577951
Entropy (-ST):   -0.000054
Local:           -0.006873
--------------------------
Free energy:     -6.280684
Extrapolated:    -6.280657

Showing only first 2 kpts
 Kpt  Band  Eigenvalues  Occupancy
  0     0     -3.99612    0.03333
  0     1     19.68909    0.00000
  0     2     19.68909    0.00000

  1     0     -3.95006    0.03333
  1     1     19.13732    0.00000
  1     2     19.13732    0.00000


Fermi level: 7.08617

No gap
band structure:
Timing:                              incl.     excl.
-----------------------------------------------------------
Hamiltonian:                         0.257     0.000   0.0% |
 Atomic:                             0.101     0.101   0.1% |
  XC Correction:                     0.000     0.000   0.0% |
 Calculate atomic Hamiltonians:      0.001     0.001   0.0% |
 Communicate:                        0.000     0.000   0.0% |
 Initialize Hamiltonian:             0.000     0.000   0.0% |
 Poisson:                            0.000     0.000   0.0% |
 XC 3D grid:                         0.155     0.155   0.1% |
LCAO initialization:                 0.688     0.023   0.0% |
 LCAO eigensolver:                   0.564     0.001   0.0% |
  Calculate projections:             0.000     0.000   0.0% |
  DenseAtomicCorrection:             0.000     0.000   0.0% |
  Distribute overlap matrix:         0.000     0.000   0.0% |
  Orbital Layouts:                   0.528     0.528   0.3% |
  Potential matrix:                  0.029     0.029   0.0% |
  Sum over cells:                    0.006     0.006   0.0% |
 LCAO to grid:                       0.019     0.019   0.0% |
 Set positions (LCAO WFS):           0.082     0.009   0.0% |
  Basic WFS set positions:           0.002     0.002   0.0% |
  Basis functions set positions:     0.000     0.000   0.0% |
  P tci:                             0.010     0.010   0.0% |
  ST tci:                            0.024     0.024   0.0% |
  mktci:                             0.037     0.037   0.0% |
PWDescriptor:                        0.033     0.033   0.0% |
SCF-cycle:                          36.187     1.020   0.6% |
 Davidson:                          32.151     0.037   0.0% |
  Apply H:                           0.007     0.006   0.0% |
   HMM T:                            0.001     0.001   0.0% |
  Subspace diag:                     4.573     0.003   0.0% |
   calc_h_matrix:                    1.783     1.775   1.1% |
    Apply H:                         0.008     0.006   0.0% |
     HMM T:                          0.001     0.001   0.0% |
   diagonalize:                      2.785     2.785   1.7% ||
   rotate_psi:                       0.003     0.003   0.0% |
  calc. matrices:                    1.879     1.865   1.1% |
   Apply H:                          0.015     0.012   0.0% |
    HMM T:                           0.003     0.003   0.0% |
  diagonalize:                      25.651    25.651  15.5% |-----|
  rotate_psi:                        0.003     0.003   0.0% |
 Density:                            0.349     0.000   0.0% |
  Atomic density matrices:           0.022     0.022   0.0% |
  Mix:                               0.262     0.262   0.2% |
  Multipole moments:                 0.001     0.001   0.0% |
  Pseudo density:                    0.064     0.012   0.0% |
   Symmetrize density:               0.052     0.052   0.0% |
 Hamiltonian:                        2.581     0.003   0.0% |
  Atomic:                            0.954     0.954   0.6% |
   XC Correction:                    0.000     0.000   0.0% |
  Calculate atomic Hamiltonians:     0.004     0.004   0.0% |
  Communicate:                       0.004     0.004   0.0% |
  Poisson:                           0.001     0.001   0.0% |
  XC 3D grid:                        1.615     1.615   1.0% |
 Orthonormalize:                     0.085     0.000   0.0% |
  calc_s_matrix:                     0.084     0.084   0.1% |
  inverse-cholesky:                  0.001     0.001   0.0% |
  projections:                       0.000     0.000   0.0% |
  rotate_psi_s:                      0.000     0.000   0.0% |
Set symmetry:                        0.050     0.050   0.0% |
Other:                             128.037   128.037  77.5% |------------------------------|
-----------------------------------------------------------
Total:                                       165.252 100.0%

Date: Fri Feb 26 22:31:46 2021
Timing:                              incl.     excl.
-----------------------------------------------------------
Hamiltonian:                         0.283     0.000   0.0% |
 Atomic:                             0.104     0.104   0.1% |
  XC Correction:                     0.000     0.000   0.0% |
 Calculate atomic Hamiltonians:      0.000     0.000   0.0% |
 Communicate:                        0.000     0.000   0.0% |
 Initialize Hamiltonian:             0.000     0.000   0.0% |
 Poisson:                            0.000     0.000   0.0% |
 XC 3D grid:                         0.178     0.178   0.1% |
LCAO initialization:                 0.665     0.024   0.0% |
 LCAO eigensolver:                   0.535     0.000   0.0% |
  Calculate projections:             0.000     0.000   0.0% |
  DenseAtomicCorrection:             0.000     0.000   0.0% |
  Distribute overlap matrix:         0.000     0.000   0.0% |
  Orbital Layouts:                   0.500     0.500   0.4% |
  Potential matrix:                  0.029     0.029   0.0% |
  Sum over cells:                    0.006     0.006   0.0% |
 LCAO to grid:                       0.027     0.027   0.0% |
 Set positions (LCAO WFS):           0.079     0.008   0.0% |
  Basic WFS set positions:           0.000     0.000   0.0% |
  Basis functions set positions:     0.000     0.000   0.0% |
  P tci:                             0.010     0.010   0.0% |
  ST tci:                            0.023     0.023   0.0% |
  mktci:                             0.038     0.038   0.0% |
PWDescriptor:                        0.036     0.036   0.0% |
SCF-cycle:                         121.787     3.307   2.7% ||
 Davidson:                         118.139     2.186   1.8% ||
  Apply H:                           0.027     0.023   0.0% |
   HMM T:                            0.003     0.003   0.0% |
  Subspace diag:                    14.941     0.003   0.0% |
   calc_h_matrix:                    1.424     1.369   1.1% |
    Apply H:                         0.055     0.051   0.0% |
     HMM T:                          0.004     0.004   0.0% |
   diagonalize:                     11.426    11.426   9.2% |---|
   rotate_psi:                       2.089     2.089   1.7% ||
  calc. matrices:                    1.518     1.479   1.2% |
   Apply H:                          0.039     0.032   0.0% |
    HMM T:                           0.007     0.007   0.0% |
  diagonalize:                      95.702    95.702  76.8% |------------------------------|
  rotate_psi:                        3.766     3.766   3.0% ||
 Orthonormalize:                     0.341     0.000   0.0% |
  calc_s_matrix:                     0.082     0.082   0.1% |
  inverse-cholesky:                  0.153     0.153   0.1% |
  projections:                       0.000     0.000   0.0% |
  rotate_psi_s:                      0.106     0.106   0.1% |
Set symmetry:                        0.000     0.000   0.0% |
Other:                               1.900     1.900   1.5% ||
-----------------------------------------------------------
Total:                                       124.671 100.0%

Date: Fri Feb 26 22:31:46 2021
