
  ___ ___ ___ _ _ _  
 |   |   |_  | | | | 
 | | | | | . | | | | 
 |__ |  _|___|_____|  19.8.1
 |___|_|             

User:   eliasel@hebbe06-9
Date:   Wed Feb  3 14:20:21 2021
Arch:   x86_64
Pid:    5783
Python: 3.7.2
gpaw:   /apps/Hebbe7/software/MPI/intel/2019.1.144-GCC-8.2.0-2.31.1/impi/2018.4.274/GPAW/19.8.1-Python-3.7.2/lib/python3.7/site-packages/gpaw
_gpaw:  /apps/Hebbe7/software/MPI/intel/2019.1.144-GCC-8.2.0-2.31.1/impi/2018.4.274/GPAW/19.8.1-Python-3.7.2/lib/python3.7/site-packages/
        _gpaw.cpython-37m-x86_64-linux-gnu.so
ase:    /apps/Hebbe7/software/MPI/intel/2019.1.144-GCC-8.2.0-2.31.1/impi/2018.4.274/ASE/3.18.0-Python-3.7.2/lib/python3.7/site-packages/ase (version 3.18.0)
numpy:  /apps/Hebbe7/software/MPI/intel/2019.1.144-GCC-8.2.0-2.31.1/impi/2018.4.274/SciPy-bundle/2019.03/lib/python3.7/site-packages/numpy (version 1.16.2)
scipy:  /apps/Hebbe7/software/MPI/intel/2019.1.144-GCC-8.2.0-2.31.1/impi/2018.4.274/SciPy-bundle/2019.03/lib/python3.7/site-packages/scipy (version 1.2.1)
libxc:  4.3.4
units:  Angstrom and eV
cores:  1

Input parameters:
  basis: dzp
  h: 0.25
  mode: lcao
  nbands: 10
  occupations: {name: fermi-dirac,
                width: 0.05}
  setups: {Na: 1}

System changes: positions, numbers, cell, pbc, initial_charges, initial_magmoms 

Initialize ...

Na-setup:
  name: Sodium
  id: fa5c50181d04022fed15b2593599c257
  Z: 11
  valence: 1
  core: 10
  charge: 0.0
  file: /apps/Hebbe7/software/Core/GPAW-setups/0.9.20000/Na.1.LDA.gz
  compensation charges: gauss, rc=0.43, lmax=2
  cutoffs: 2.36(filt), 3.60(core),
  valence states:
                energy  radius
    3s(1.00)    -2.819   1.349
    3p(0.00)    -0.774   1.349
    *s          24.392   1.349

  LCAO basis set for Na:
    Name: 1.dzp
    File: /apps/Hebbe7/software/Core/GPAW-setups/0.9.20000/Na.1.dzp.basis.gz
    Number of radial functions: 3
    Number of spherical harmonics: 5
      l=0, rc=11.7656 Bohr: 3s-sz confined orbital
      l=0, rc=7.1094 Bohr: 3s-dz split-valence wave
      l=1, rc=11.7656 Bohr: p-type Gaussian polarization

Reference energy: -26392.251304

Spin-paired calculation

Occupation numbers:
  Fermi-Dirac: width=0.0500 eV

Convergence criteria:
  Maximum total energy change: 0.0005 eV / electron
  Maximum integral of absolute density change: 0.0001 electrons
  Maximum integral of absolute eigenstate change: 4e-08 eV^2
  Maximum number of iterations: 333

Symmetries present (total): 1

  ( 1  0  0)
  ( 0  1  0)
  ( 0  0  1)

1 k-point (Gamma)
1 k-point in the irreducible part of the Brillouin zone
       k-points in crystal coordinates                weights
   0:     0.00000000    0.00000000    0.00000000          1/1

Wave functions: LCAO
  Diagonalizer: Serial LAPACK
  Atomic Correction: dense with blas
  Datatype: float
 

Eigensolver
   LCAO using direct dense diagonalizer 

Densities:
  Coarse grid: 64*64*64 grid
  Fine grid: 128*128*128 grid
  Total Charge: 0.000000 

Density mixing:
  Method: separate
  Backend: pulay
  Linear mixing parameter: 0.25
  Mixing with 3 old densities
  No damping of long wave oscillations 

Hamiltonian:
  XC and Coulomb potentials evaluated on a 128*128*128 grid
  Using the LDA Exchange-Correlation functional
  Interpolation: tri-quintic (5. degree polynomial)
  Poisson solver: FastPoissonSolver using
    6*3+1=19 point O(h^6) finite-difference Laplacian stencil;
    FFT axes: [];
    FST axes: [0, 1, 2].
 

Memory estimate:
  Process memory now: 254.04 MiB
  Calculator: 127.06 MiB
    Density: 80.09 MiB
      Arrays: 50.70 MiB
      Localized functions: 17.94 MiB
      Mixer: 11.45 MiB
    Hamiltonian: 34.46 MiB
      Arrays: 33.16 MiB
      XC: 0.00 MiB
      Poisson: 0.00 MiB
      vbar: 1.29 MiB
    Wavefunctions: 12.52 MiB
      C [qnM]: 0.00 MiB
      S, T [2 x qmm]: 0.01 MiB
      P [aqMi]: 0.00 MiB
      BasisFunctions: 12.50 MiB
      Eigensolver: 0.00 MiB

Total number of cores used: 1

Number of atoms: 6
Number of atomic orbitals: 30
Number of bands in calculation: 10
Bands to converge: occupied states only
Number of valence electrons: 6

... initialized

Initializing position-dependent things.

Density initialized from atomic densities
           .--------------------------------------.  
          /|                                      |  
         / |                                      |  
        /  |                                      |  
       /   |                                      |  
      /    |                                      |  
     /     |                                      |  
    /      |                                      |  
   /       |                                      |  
  /        |                                      |  
 *         |                                      |  
 |         |              NaNa                    |  
 |         |                                      |  
 |         |                                      |  
 |         |           Na                         |  
 |         |             Na                       |  
 |         |                                      |  
 |         |                                      |  
 |         |          Na                          |  
 |         |             Na                       |  
 |         .--------------------------------------.  
 |        /                                      /   
 |       /                                      /    
 |      /                                      /     
 |     /                                      /      
 |    /                                      /       
 |   /                                      /        
 |  /                                      /         
 | /                                      /          
 |/                                      /           
 *--------------------------------------*            

Positions:
   0 Na     7.417603    8.817928    7.310951    ( 0.0000,  0.0000,  0.0000)
   1 Na     7.667890    9.660775   10.048887    ( 0.0000,  0.0000,  0.0000)
   2 Na     7.441400    6.846164    9.411465    ( 0.0000,  0.0000,  0.0000)
   3 Na     7.245703    6.002338    6.678904    ( 0.0000,  0.0000,  0.0000)
   4 Na     8.983407    7.682121   11.684907    ( 0.0000,  0.0000,  0.0000)
   5 Na     7.918677    7.907944    4.624361    ( 0.0000,  0.0000,  0.0000)

Unit cell:
           periodic     x           y           z      points  spacing
  1. axis:    no    16.000000    0.000000    0.000000    64     0.2500
  2. axis:    no     0.000000   16.000000    0.000000    64     0.2500
  3. axis:    no     0.000000    0.000000   16.000000    64     0.2500

  Lengths:  16.000000  16.000000  16.000000
  Angles:   90.000000  90.000000  90.000000

Effective grid spacing dv^(1/3) = 0.2500

                     log10-error:    total        iterations:
           time      wfs    density  energy       fermi  poisson
iter:   1  14:20:26          +inf    -3.780215    1      1      
iter:   2  14:20:27         -0.53    -3.468635    33     1      
iter:   3  14:20:28         -0.88    -3.406506    32     1      
iter:   4  14:20:29         -1.21    -3.404582    3      1      
iter:   5  14:20:30         -1.40    -3.395708    2      1      
iter:   6  14:20:32         -1.92    -3.394783    2      1      
iter:   7  14:20:33         -2.16    -3.394245    2      1      
iter:   8  14:20:34         -2.65    -3.394207    2      1      
iter:   9  14:20:35         -2.97    -3.394231    2      1      
iter:  10  14:20:36         -3.31    -3.394234    1      1      
iter:  11  14:20:37         -3.69    -3.394240    1      1      
iter:  12  14:20:39         -3.86    -3.394244    1      1      
iter:  13  14:20:40         -4.18    -3.394245    1      1      

Converged after 13 iterations.

Dipole moment: (0.160429, -0.004362, -0.010399) |e|*Ang

Energy contributions relative to reference atoms: (reference = -26392.251304)

Kinetic:        +38.864799
Potential:      -31.769830
External:        +0.000000
XC:             -10.480187
Entropy (-ST):   -0.102750
Local:           +0.042348
--------------------------
Free energy:     -3.445620
Extrapolated:    -3.394245

Fermi level: -2.46532

 Band  Eigenvalues  Occupancy
    0     -4.68160    2.00000
    1     -3.68242    2.00000
    2     -2.53162    1.58031
    3     -2.39903    0.41969
    4     -1.38439    0.00000
    5     -0.97182    0.00000
    6      1.28515    0.00000
    7      1.59996    0.00000
    8      1.92239    0.00000
    9      2.56566    0.00000

Gap: 0.133 eV
Transition (v -> c):
  (s=0, k=0, n=2, [0.00, 0.00, 0.00]) -> (s=0, k=0, n=3, [0.00, 0.00, 0.00])

Forces in eV/Ang:
  0 Na   -0.07425    0.86237   -0.25500
  1 Na   -0.09642    0.95497    0.20099
  2 Na   -0.20349   -0.86792    0.30413
  3 Na   -0.13787   -0.94395   -0.14312
  4 Na    0.36500   -0.20461    0.52316
  5 Na    0.15125    0.20030   -0.62947

System changes: positions 

Initializing position-dependent things.

Density initialized from wave functions
           .--------------------------------------.  
          /|                                      |  
         / |                                      |  
        /  |                                      |  
       /   |                                      |  
      /    |                                      |  
     /     |                                      |  
    /      |                                      |  
   /       |                                      |  
  /        |                                      |  
 *         |                Na                    |  
 |         |              Na                      |  
 |         |                                      |  
 |         |                                      |  
 |         |           Na                         |  
 |         |             Na                       |  
 |         |                                      |  
 |         |                                      |  
 |         |          Na                          |  
 |         |             Na                       |  
 |         .--------------------------------------.  
 |        /                                      /   
 |       /                                      /    
 |      /                                      /     
 |     /                                      /      
 |    /                                      /       
 |   /                                      /        
 |  /                                      /         
 | /                                      /          
 |/                                      /           
 *--------------------------------------*            

Positions:
   0 Na     7.403605    8.980508    7.262877    ( 0.0000,  0.0000,  0.0000)
   1 Na     7.649711    9.840814   10.086779    ( 0.0000,  0.0000,  0.0000)
   2 Na     7.403037    6.682537    9.468803    ( 0.0000,  0.0000,  0.0000)
   3 Na     7.219711    5.824376    6.651922    ( 0.0000,  0.0000,  0.0000)
   4 Na     9.052220    7.643546   11.783538    ( 0.0000,  0.0000,  0.0000)
   5 Na     7.947192    7.945706    4.505689    ( 0.0000,  0.0000,  0.0000)

Unit cell:
           periodic     x           y           z      points  spacing
  1. axis:    no    16.000000    0.000000    0.000000    64     0.2500
  2. axis:    no     0.000000   16.000000    0.000000    64     0.2500
  3. axis:    no     0.000000    0.000000   16.000000    64     0.2500

  Lengths:  16.000000  16.000000  16.000000
  Angles:   90.000000  90.000000  90.000000

Effective grid spacing dv^(1/3) = 0.2500

                     log10-error:    total        iterations:
           time      wfs    density  energy       fermi  poisson
iter:   1  14:20:41          +inf    -4.014310    2      1      
iter:   2  14:20:43         -1.41    -4.014831    2      1      
iter:   3  14:20:44         -1.71    -4.013656    2      1      
iter:   4  14:20:45         -1.91    -4.012787    2      1      
iter:   5  14:20:46         -2.47    -4.012619    2      1      
iter:   6  14:20:47         -2.78    -4.012574    2      1      
iter:   7  14:20:48         -3.35    -4.012590    2      1      
iter:   8  14:20:50         -3.62    -4.012596    1      1      
iter:   9  14:20:51         -3.87    -4.012605    1      1      
iter:  10  14:20:52         -4.31    -4.012607    1      1      

Converged after 10 iterations.

Dipole moment: (0.206005, -0.006381, -0.006945) |e|*Ang

Energy contributions relative to reference atoms: (reference = -26392.251304)

Kinetic:        +29.343968
Potential:      -24.521450
External:        +0.000000
XC:              -8.827798
Entropy (-ST):   -0.079547
Local:           +0.032446
--------------------------
Free energy:     -4.052380
Extrapolated:    -4.012607

Fermi level: -2.46110

 Band  Eigenvalues  Occupancy
    0     -4.48360    2.00000
    1     -3.57996    2.00000
    2     -2.55352    1.72789
    3     -2.36868    0.27211
    4     -1.43757    0.00000
    5     -0.99424    0.00000
    6      1.53781    0.00000
    7      1.80520    0.00000
    8      2.12124    0.00000
    9      2.54816    0.00000

Gap: 0.185 eV
Transition (v -> c):
  (s=0, k=0, n=2, [0.00, 0.00, 0.00]) -> (s=0, k=0, n=3, [0.00, 0.00, 0.00])

Forces in eV/Ang:
  0 Na   -0.03993    0.39320   -0.14726
  1 Na   -0.02300    0.46023    0.16027
  2 Na   -0.10031   -0.39622    0.19204
  3 Na   -0.05487   -0.45762   -0.13699
  4 Na    0.15527   -0.07817    0.22293
  5 Na    0.06499    0.07925   -0.29175

System changes: positions 

Initializing position-dependent things.

Density initialized from wave functions
           .--------------------------------------.  
          /|                                      |  
         / |                                      |  
        /  |                                      |  
       /   |                                      |  
      /    |                                      |  
     /     |                                      |  
    /      |                                      |  
   /       |                                      |  
  /        |                                      |  
 *         |                Na                    |  
 |         |              Na                      |  
 |         |                                      |  
 |         |                                      |  
 |         |           Na                         |  
 |         |             Na                       |  
 |         |                                      |  
 |         |                                      |  
 |         |          Na                          |  
 |         |                                      |  
 |         .-------------Na-----------------------.  
 |        /                                      /   
 |       /                                      /    
 |      /                                      /     
 |     /                                      /      
 |    /                                      /       
 |   /                                      /        
 |  /                                      /         
 | /                                      /          
 |/                                      /           
 *--------------------------------------*            

Positions:
   0 Na     7.391537    9.107155    7.219490    ( 0.0000,  0.0000,  0.0000)
   1 Na     7.639567    9.985814   10.129448    ( 0.0000,  0.0000,  0.0000)
   2 Na     7.371711    6.554982    9.523695    ( 0.0000,  0.0000,  0.0000)
   3 Na     7.200995    5.680530    6.617157    ( 0.0000,  0.0000,  0.0000)
   4 Na     9.103687    7.616395   11.857379    ( 0.0000,  0.0000,  0.0000)
   5 Na     7.968643    7.972807    4.412337    ( 0.0000,  0.0000,  0.0000)

Unit cell:
           periodic     x           y           z      points  spacing
  1. axis:    no    16.000000    0.000000    0.000000    64     0.2500
  2. axis:    no     0.000000   16.000000    0.000000    64     0.2500
  3. axis:    no     0.000000    0.000000   16.000000    64     0.2500

  Lengths:  16.000000  16.000000  16.000000
  Angles:   90.000000  90.000000  90.000000

Effective grid spacing dv^(1/3) = 0.2500

                     log10-error:    total        iterations:
           time      wfs    density  energy       fermi  poisson
iter:   1  14:20:54          +inf    -4.251891    2      1      
iter:   2  14:20:55         -1.57    -4.253220    3      1      
iter:   3  14:20:56         -1.92    -4.253424    2      1      
iter:   4  14:20:57         -2.13    -4.253083    2      1      
iter:   5  14:20:58         -2.61    -4.253050    2      1      
iter:   6  14:20:59         -2.83    -4.253024    1      1      
iter:   7  14:21:01         -3.05    -4.253015    2      1      
iter:   8  14:21:02         -3.40    -4.253016    2      1      
iter:   9  14:21:03         -3.67    -4.253020    2      1      
iter:  10  14:21:04         -4.06    -4.253020    1      1      

Converged after 10 iterations.

Dipole moment: (0.231857, -0.008411, -0.003874) |e|*Ang

Energy contributions relative to reference atoms: (reference = -26392.251304)

Kinetic:        +23.605309
Potential:      -20.123186
External:        +0.000000
XC:              -7.731820
Entropy (-ST):   -0.058683
Local:           +0.026019
--------------------------
Free energy:     -4.282361
Extrapolated:    -4.253020

Fermi level: -2.46603

 Band  Eigenvalues  Occupancy
    0     -4.33302    2.00000
    1     -3.50771    2.00000
    2     -2.58415    1.82781
    3     -2.34792    0.17219
    4     -1.49157    0.00000
    5     -1.01848    0.00000
    6      1.80258    0.00000
    7      2.02843    0.00000
    8      2.34062    0.00000
    9      2.54628    0.00000

Gap: 0.236 eV
Transition (v -> c):
  (s=0, k=0, n=2, [0.00, 0.00, 0.00]) -> (s=0, k=0, n=3, [0.00, 0.00, 0.00])

Forces in eV/Ang:
  0 Na   -0.01400    0.18808   -0.07995
  1 Na    0.01280    0.21957    0.11483
  2 Na   -0.04245   -0.19855    0.11049
  3 Na   -0.01149   -0.21124   -0.10583
  4 Na    0.04029   -0.01372    0.06467
  5 Na    0.01587    0.01645   -0.10460

System changes: positions 

Initializing position-dependent things.

Density initialized from wave functions
           .--------------------------------------.  
          /|                                      |  
         / |                                      |  
        /  |                                      |  
       /   |                                      |  
      /    |                                      |  
     /     |                                      |  
    /      |                                      |  
   /       |                                      |  
  /        |                                      |  
 *         |                Na                    |  
 |         |              Na                      |  
 |         |                                      |  
 |         |                                      |  
 |         |           Na                         |  
 |         |             Na                       |  
 |         |                                      |  
 |         |                                      |  
 |         |          Na                          |  
 |         |                                      |  
 |         .-------------Na-----------------------.  
 |        /                                      /   
 |       /                                      /    
 |      /                                      /     
 |     /                                      /      
 |    /                                      /       
 |   /                                      /        
 |  /                                      /         
 | /                                      /          
 |/                                      /           
 *--------------------------------------*            

Positions:
   0 Na     7.382035    9.213564    7.178230    ( 0.0000,  0.0000,  0.0000)
   1 Na     7.638231   10.109635   10.179815    ( 0.0000,  0.0000,  0.0000)
   2 Na     7.346000    6.445722    9.578601    ( 0.0000,  0.0000,  0.0000)
   3 Na     7.189298    5.559079    6.572681    ( 0.0000,  0.0000,  0.0000)
   4 Na     9.138275    7.600238   11.908575    ( 0.0000,  0.0000,  0.0000)
   5 Na     7.982879    7.989683    4.341419    ( 0.0000,  0.0000,  0.0000)

Unit cell:
           periodic     x           y           z      points  spacing
  1. axis:    no    16.000000    0.000000    0.000000    64     0.2500
  2. axis:    no     0.000000   16.000000    0.000000    64     0.2500
  3. axis:    no     0.000000    0.000000   16.000000    64     0.2500

  Lengths:  16.000000  16.000000  16.000000
  Angles:   90.000000  90.000000  90.000000

Effective grid spacing dv^(1/3) = 0.2500

                     log10-error:    total        iterations:
           time      wfs    density  energy       fermi  poisson
iter:   1  14:21:06          +inf    -4.346358    3      1      
iter:   2  14:21:07         -1.64    -4.347126    3      1      
iter:   3  14:21:08         -2.05    -4.347596    2      1      
iter:   4  14:21:09         -2.27    -4.347515    2      1      
iter:   5  14:21:10         -2.48    -4.347480    2      1      
iter:   6  14:21:11         -2.80    -4.347428    1      1      
iter:   7  14:21:13         -3.28    -4.347418    2      1      
iter:   8  14:21:14         -3.49    -4.347415    2      1      
iter:   9  14:21:15         -3.98    -4.347418    1      1      
iter:  10  14:21:16         -4.24    -4.347419    1      1      

Converged after 10 iterations.

Dipole moment: (0.240906, -0.010001, -0.002264) |e|*Ang

Energy contributions relative to reference atoms: (reference = -26392.251304)

Kinetic:        +19.779892
Potential:      -17.183944
External:        +0.000000
XC:              -6.944439
Entropy (-ST):   -0.041017
Local:           +0.021580
--------------------------
Free energy:     -4.367927
Extrapolated:    -4.347419

Fermi level: -2.47301

 Band  Eigenvalues  Occupancy
    0     -4.21579    2.00000
    1     -3.45775    2.00000
    2     -2.61791    1.89550
    3     -2.32811    0.10450
    4     -1.55100    0.00000
    5     -1.04150    0.00000
    6      2.07146    0.00000
    7      2.25496    0.00000
    8      2.55803    0.00000
    9      2.61273    0.00000

Gap: 0.290 eV
Transition (v -> c):
  (s=0, k=0, n=2, [0.00, 0.00, 0.00]) -> (s=0, k=0, n=3, [0.00, 0.00, 0.00])

Forces in eV/Ang:
  0 Na    0.00558    0.09757   -0.02614
  1 Na    0.03083    0.08169    0.06252
  2 Na   -0.00936   -0.11042    0.04066
  3 Na    0.01196   -0.07227   -0.05730
  4 Na   -0.02423    0.02127   -0.02058
  5 Na   -0.01331   -0.01757    0.00231

System changes: positions 

Initializing position-dependent things.

Density initialized from wave functions
           .--------------------------------------.  
          /|                                      |  
         / |                                      |  
        /  |                                      |  
       /   |                                      |  
      /    |                                      |  
     /     |                                      |  
    /      |                                      |  
   /       |                                      |  
  /        |                                      |  
 *         |                Na                    |  
 |         |              Na                      |  
 |         |                                      |  
 |         |                                      |  
 |         |           Na                         |  
 |         |             Na                       |  
 |         |                                      |  
 |         |                                      |  
 |         |          Na                          |  
 |         |                                      |  
 |         .-------------Na-----------------------.  
 |        /                                      /   
 |       /                                      /    
 |      /                                      /     
 |     /                                      /      
 |    /                                      /       
 |   /                                      /        
 |  /                                      /         
 | /                                      /          
 |/                                      /           
 *--------------------------------------*            

Positions:
   0 Na     7.378637    9.298735    7.146581    ( 0.0000,  0.0000,  0.0000)
   1 Na     7.648737   10.200770   10.230165    ( 0.0000,  0.0000,  0.0000)
   2 Na     7.329616    6.354577    9.623210    ( 0.0000,  0.0000,  0.0000)
   3 Na     7.187739    5.472458    6.526698    ( 0.0000,  0.0000,  0.0000)
   4 Na     9.147173    7.599801   11.926728    ( 0.0000,  0.0000,  0.0000)
   5 Na     7.985537    7.991815    4.306201    ( 0.0000,  0.0000,  0.0000)

Unit cell:
           periodic     x           y           z      points  spacing
  1. axis:    no    16.000000    0.000000    0.000000    64     0.2500
  2. axis:    no     0.000000   16.000000    0.000000    64     0.2500
  3. axis:    no     0.000000    0.000000   16.000000    64     0.2500

  Lengths:  16.000000  16.000000  16.000000
  Angles:   90.000000  90.000000  90.000000

Effective grid spacing dv^(1/3) = 0.2500

                     log10-error:    total        iterations:
           time      wfs    density  energy       fermi  poisson
iter:   1  14:21:18          +inf    -4.378357    3      1      
iter:   2  14:21:19         -1.77    -4.378688    3      1      
iter:   3  14:21:20         -2.18    -4.379056    2      1      
iter:   4  14:21:21         -2.42    -4.379066    2      1      
iter:   5  14:21:22         -2.59    -4.379059    2      1      
iter:   6  14:21:24         -2.87    -4.379029    2      1      
iter:   7  14:21:25         -3.45    -4.379017    1      1      
iter:   8  14:21:26         -3.71    -4.379011    1      1      
iter:   9  14:21:27         -4.05    -4.379011    1      1      

Converged after 9 iterations.

Dipole moment: (0.235506, -0.009903, -0.002979) |e|*Ang

Energy contributions relative to reference atoms: (reference = -26392.251304)

Kinetic:        +17.573205
Potential:      -15.492549
External:        +0.000000
XC:              -6.465274
Entropy (-ST):   -0.027559
Local:           +0.019386
--------------------------
Free energy:     -4.392791
Extrapolated:    -4.379011

Fermi level: -2.47644

 Band  Eigenvalues  Occupancy
    0     -4.13811    2.00000
    1     -3.43055    2.00000
    2     -2.64875    1.93824
    3     -2.30413    0.06176
    4     -1.60764    0.00000
    5     -1.05055    0.00000
    6      2.24911    0.00000
    7      2.42160    0.00000
    8      2.58091    0.00000
    9      2.88206    0.00000

Gap: 0.345 eV
Transition (v -> c):
  (s=0, k=0, n=2, [0.00, 0.00, 0.00]) -> (s=0, k=0, n=3, [0.00, 0.00, 0.00])

Forces in eV/Ang:
  0 Na    0.01865    0.05936    0.01428
  1 Na    0.03404    0.01502    0.01338
  2 Na    0.00410   -0.08286   -0.01104
  3 Na    0.02212    0.00067   -0.01037
  4 Na   -0.05158    0.03710   -0.05654
  5 Na   -0.02716   -0.03136    0.05257

System changes: positions 

Initializing position-dependent things.

Density initialized from wave functions
           .--------------------------------------.  
          /|                                      |  
         / |                                      |  
        /  |                                      |  
       /   |                                      |  
      /    |                                      |  
     /     |                                      |  
    /      |                                      |  
   /       |                                      |  
  /        |                                      |  
 *         |                Na                    |  
 |         |              Na                      |  
 |         |                                      |  
 |         |                                      |  
 |         |           Na                         |  
 |         |             Na                       |  
 |         |                                      |  
 |         |                                      |  
 |         |          Na                          |  
 |         |                                      |  
 |         .-------------Na-----------------------.  
 |        /                                      /   
 |       /                                      /    
 |      /                                      /     
 |     /                                      /      
 |    /                                      /       
 |   /                                      /        
 |  /                                      /         
 | /                                      /          
 |/                                      /           
 *--------------------------------------*            

Positions:
   0 Na     7.384256    9.371660    7.132016    ( 0.0000,  0.0000,  0.0000)
   1 Na     7.670883   10.259648   10.269780    ( 0.0000,  0.0000,  0.0000)
   2 Na     7.322368    6.268890    9.647636    ( 0.0000,  0.0000,  0.0000)
   3 Na     7.196985    5.422508    6.490710    ( 0.0000,  0.0000,  0.0000)
   4 Na     9.128626    7.616429   11.910826    ( 0.0000,  0.0000,  0.0000)
   5 Na     7.974948    7.978528    4.309691    ( 0.0000,  0.0000,  0.0000)

Unit cell:
           periodic     x           y           z      points  spacing
  1. axis:    no    16.000000    0.000000    0.000000    64     0.2500
  2. axis:    no     0.000000   16.000000    0.000000    64     0.2500
  3. axis:    no     0.000000    0.000000   16.000000    64     0.2500

  Lengths:  16.000000  16.000000  16.000000
  Angles:   90.000000  90.000000  90.000000

Effective grid spacing dv^(1/3) = 0.2500

                     log10-error:    total        iterations:
           time      wfs    density  energy       fermi  poisson
iter:   1  14:21:29          +inf    -4.396799    2      1      
iter:   2  14:21:30         -1.87    -4.396848    2      1      
iter:   3  14:21:31         -2.25    -4.397085    2      1      
iter:   4  14:21:32         -2.54    -4.397121    2      1      
iter:   5  14:21:33         -2.73    -4.397128    2      1      
iter:   6  14:21:35         -2.97    -4.397120    2      1      
