
  ___ ___ ___ _ _ _  
 |   |   |_  | | | | 
 | | | | | . | | | | 
 |__ |  _|___|_____|  19.8.1
 |___|_|             

User:   eliasel@hebbe25-2
Date:   Thu Feb  4 14:28:07 2021
Arch:   x86_64
Pid:    16863
Python: 3.7.2
gpaw:   /apps/Hebbe7/software/MPI/intel/2019.1.144-GCC-8.2.0-2.31.1/impi/2018.4.274/GPAW/19.8.1-Python-3.7.2/lib/python3.7/site-packages/gpaw
_gpaw:  /apps/Hebbe7/software/MPI/intel/2019.1.144-GCC-8.2.0-2.31.1/impi/2018.4.274/GPAW/19.8.1-Python-3.7.2/lib/python3.7/site-packages/
        _gpaw.cpython-37m-x86_64-linux-gnu.so
ase:    /apps/Hebbe7/software/MPI/intel/2019.1.144-GCC-8.2.0-2.31.1/impi/2018.4.274/ASE/3.18.0-Python-3.7.2/lib/python3.7/site-packages/ase (version 3.18.0)
numpy:  /apps/Hebbe7/software/MPI/intel/2019.1.144-GCC-8.2.0-2.31.1/impi/2018.4.274/SciPy-bundle/2019.03/lib/python3.7/site-packages/numpy (version 1.16.2)
scipy:  /apps/Hebbe7/software/MPI/intel/2019.1.144-GCC-8.2.0-2.31.1/impi/2018.4.274/SciPy-bundle/2019.03/lib/python3.7/site-packages/scipy (version 1.2.1)
libxc:  4.3.4
units:  Angstrom and eV
cores:  1

Input parameters:
  basis: dzp
  h: 0.25
  mode: lcao
  nbands: 10
  occupations: {name: fermi-dirac,
                width: 0.05}
  setups: {Na: 1}

System changes: positions, numbers, cell, pbc, initial_charges, initial_magmoms 

Initialize ...

Na-setup:
  name: Sodium
  id: fa5c50181d04022fed15b2593599c257
  Z: 11
  valence: 1
  core: 10
  charge: 0.0
  file: /apps/Hebbe7/software/Core/GPAW-setups/0.9.20000/Na.1.LDA.gz
  compensation charges: gauss, rc=0.43, lmax=2
  cutoffs: 2.36(filt), 3.60(core),
  valence states:
                energy  radius
    3s(1.00)    -2.819   1.349
    3p(0.00)    -0.774   1.349
    *s          24.392   1.349

  LCAO basis set for Na:
    Name: 1.dzp
    File: /apps/Hebbe7/software/Core/GPAW-setups/0.9.20000/Na.1.dzp.basis.gz
    Number of radial functions: 3
    Number of spherical harmonics: 5
      l=0, rc=11.7656 Bohr: 3s-sz confined orbital
      l=0, rc=7.1094 Bohr: 3s-dz split-valence wave
      l=1, rc=11.7656 Bohr: p-type Gaussian polarization

Reference energy: -26392.251304

Spin-paired calculation

Occupation numbers:
  Fermi-Dirac: width=0.0500 eV

Convergence criteria:
  Maximum total energy change: 0.0005 eV / electron
  Maximum integral of absolute density change: 0.0001 electrons
  Maximum integral of absolute eigenstate change: 4e-08 eV^2
  Maximum number of iterations: 333

Symmetries present (total): 1

  ( 1  0  0)
  ( 0  1  0)
  ( 0  0  1)

1 k-point (Gamma)
1 k-point in the irreducible part of the Brillouin zone
       k-points in crystal coordinates                weights
   0:     0.00000000    0.00000000    0.00000000          1/1

Wave functions: LCAO
  Diagonalizer: Serial LAPACK
  Atomic Correction: dense with blas
  Datatype: float
 

Eigensolver
   LCAO using direct dense diagonalizer 

Densities:
  Coarse grid: 64*64*64 grid
  Fine grid: 128*128*128 grid
  Total Charge: 0.000000 

Density mixing:
  Method: separate
  Backend: pulay
  Linear mixing parameter: 0.25
  Mixing with 3 old densities
  No damping of long wave oscillations 

Hamiltonian:
  XC and Coulomb potentials evaluated on a 128*128*128 grid
  Using the LDA Exchange-Correlation functional
  Interpolation: tri-quintic (5. degree polynomial)
  Poisson solver: FastPoissonSolver using
    6*3+1=19 point O(h^6) finite-difference Laplacian stencil;
    FFT axes: [];
    FST axes: [0, 1, 2].
 

Memory estimate:
  Process memory now: 254.11 MiB
  Calculator: 127.06 MiB
    Density: 80.09 MiB
      Arrays: 50.70 MiB
      Localized functions: 17.94 MiB
      Mixer: 11.45 MiB
    Hamiltonian: 34.46 MiB
      Arrays: 33.16 MiB
      XC: 0.00 MiB
      Poisson: 0.00 MiB
      vbar: 1.29 MiB
    Wavefunctions: 12.52 MiB
      C [qnM]: 0.00 MiB
      S, T [2 x qmm]: 0.01 MiB
      P [aqMi]: 0.00 MiB
      BasisFunctions: 12.50 MiB
      Eigensolver: 0.00 MiB

Total number of cores used: 1

Number of atoms: 6
Number of atomic orbitals: 30
Number of bands in calculation: 10
Bands to converge: occupied states only
Number of valence electrons: 6

... initialized

Initializing position-dependent things.

Density initialized from atomic densities
           .--------------------------------------.  
          /|                                      |  
         / |                                      |  
        /  |                                      |  
       /   |                                      |  
      /    |                                      |  
     /     |                                      |  
    /      |                                      |  
   /       |                                      |  
  /        |                                      |  
 *         |                                      |  
 |         |                                      |  
 |         |                                      |  
 |         |            Na    Na                  |  
 |         |           Na                         |  
 |         |                 Na                   |  
 |         |                                      |  
 |         |          Na    Na                    |  
 |         |                                      |  
 |         |                                      |  
 |         .--------------------------------------.  
 |        /                                      /   
 |       /                                      /    
 |      /                                      /     
 |     /                                      /      
 |    /                                      /       
 |   /                                      /        
 |  /                                      /         
 | /                                      /          
 |/                                      /           
 *--------------------------------------*            

Positions:
   0 Na     9.663715    8.451640    9.471536    ( 0.0000,  0.0000,  0.0000)
   1 Na     9.397472    6.685493    7.220279    ( 0.0000,  0.0000,  0.0000)
   2 Na     7.486892    6.571029    9.372135    ( 0.0000,  0.0000,  0.0000)
   3 Na     8.885200    9.500727    6.908621    ( 0.0000,  0.0000,  0.0000)
   4 Na     6.710953    7.620559    6.807163    ( 0.0000,  0.0000,  0.0000)
   5 Na     6.976353    9.387099    9.058856    ( 0.0000,  0.0000,  0.0000)

Unit cell:
           periodic     x           y           z      points  spacing
  1. axis:    no    16.000000    0.000000    0.000000    64     0.2500
  2. axis:    no     0.000000   16.000000    0.000000    64     0.2500
  3. axis:    no     0.000000    0.000000   16.000000    64     0.2500

  Lengths:  16.000000  16.000000  16.000000
  Angles:   90.000000  90.000000  90.000000

Effective grid spacing dv^(1/3) = 0.2500

                     log10-error:    total        iterations:
           time      wfs    density  energy       fermi  poisson
iter:   1  14:28:15          +inf    -3.203184    4      1      
iter:   2  14:28:16         -0.67    -2.989997    34     1      
iter:   3  14:28:17         -0.94    -2.904115    27     1      
iter:   4  14:28:18         -1.73    -2.898269    3      1      
iter:   5  14:28:19         -2.36    -2.897942    3      1      
iter:   6  14:28:21         -3.61    -2.897942    2      1      
iter:   7  14:28:22         -3.83    -2.897942    2      1      
iter:   8  14:28:23         -4.05    -2.897941    2      1      

Converged after 8 iterations.

Dipole moment: (-0.000019, -0.000142, 0.000109) |e|*Ang

Energy contributions relative to reference atoms: (reference = -26392.251304)

Kinetic:        +47.915433
Potential:      -38.323737
External:        +0.000000
XC:             -12.460562
Entropy (-ST):   -0.190950
Local:           +0.066399
--------------------------
Free energy:     -2.993416
Extrapolated:    -2.897941

Fermi level: -3.04654

 Band  Eigenvalues  Occupancy
    0     -5.43592    2.00000
    1     -3.08198    1.34034
    2     -3.08106    1.33210
    3     -3.08055    1.32756
    4     -1.08547    0.00000
    5     -1.08298    0.00000
    6     -0.23586    0.00000
    7      1.81121    0.00000
    8      1.81628    0.00000
    9      1.81896    0.00000

Gap: 1.995 eV
Transition (v -> c):
  (s=0, k=0, n=3, [0.00, 0.00, 0.00]) -> (s=0, k=0, n=4, [0.00, 0.00, 0.00])

Forces in eV/Ang:
  0 Na    0.92774    0.26166    0.83941
  1 Na    0.75997   -0.84868   -0.57626
  2 Na   -0.43641   -0.91688    0.77031
  3 Na    0.43943    0.91967   -0.77278
  4 Na   -0.92857   -0.26288   -0.83858
  5 Na   -0.75995    0.84817    0.57828

System changes: positions 

Initializing position-dependent things.

Density initialized from wave functions
           .--------------------------------------.  
          /|                                      |  
         / |                                      |  
        /  |                                      |  
       /   |                                      |  
      /    |                                      |  
     /     |                                      |  
    /      |                                      |  
   /       |                                      |  
  /        |                                      |  
 *         |                                      |  
 |         |                                      |  
 |         |                                      |  
 |         |            Na    Na                  |  
 |         |           Na                         |  
 |         |                 Na                   |  
 |         |                                      |  
 |         |          Na    Na                    |  
 |         |                                      |  
 |         |                                      |  
 |         .--------------------------------------.  
 |        /                                      /   
 |       /                                      /    
 |      /                                      /     
 |     /                                      /      
 |    /                                      /       
 |   /                                      /        
 |  /                                      /         
 | /                                      /          
 |/                                      /           
 *--------------------------------------*            

Positions:
   0 Na     9.782317    8.485091    9.578846    ( 0.0000,  0.0000,  0.0000)
   1 Na     9.494627    6.576998    7.146610    ( 0.0000,  0.0000,  0.0000)
   2 Na     7.431101    6.453815    9.470612    ( 0.0000,  0.0000,  0.0000)
   3 Na     8.941376    9.618297    6.809830    ( 0.0000,  0.0000,  0.0000)
   4 Na     6.592245    7.586952    6.699959    ( 0.0000,  0.0000,  0.0000)
   5 Na     6.879202    9.495529    9.132783    ( 0.0000,  0.0000,  0.0000)

Unit cell:
           periodic     x           y           z      points  spacing
  1. axis:    no    16.000000    0.000000    0.000000    64     0.2500
  2. axis:    no     0.000000   16.000000    0.000000    64     0.2500
  3. axis:    no     0.000000    0.000000   16.000000    64     0.2500

  Lengths:  16.000000  16.000000  16.000000
  Angles:   90.000000  90.000000  90.000000

Effective grid spacing dv^(1/3) = 0.2500

                     log10-error:    total        iterations:
           time      wfs    density  energy       fermi  poisson
iter:   1  14:28:25          +inf    -3.786313    4      1      
iter:   2  14:28:26         -1.82    -3.783325    3      1      
iter:   3  14:28:27         -1.97    -3.780503    3      1      
iter:   4  14:28:28         -2.33    -3.780148    3      1      
iter:   5  14:28:29         -2.77    -3.780107    3      1      
iter:   6  14:28:30         -3.61    -3.780107    2      1      
iter:   7  14:28:32         -4.02    -3.780107    2      1      

Converged after 7 iterations.

Dipole moment: (-0.000043, -0.000045, 0.000016) |e|*Ang

Energy contributions relative to reference atoms: (reference = -26392.251304)

Kinetic:        +33.910684
Potential:      -27.649897
External:        +0.000000
XC:              -9.994642
Entropy (-ST):   -0.190951
Local:           +0.049224
--------------------------
Free energy:     -3.875583
Extrapolated:    -3.780107

Fermi level: -2.97480

 Band  Eigenvalues  Occupancy
    0     -5.15574    2.00000
    1     -3.01010    1.33904
    2     -3.00934    1.33224
    3     -3.00894    1.32871
    4     -1.20658    0.00000
    5     -1.20422    0.00000
    6      0.19650    0.00000
    7      1.87800    0.00000
    8      1.88212    0.00000
    9      1.88409    0.00000

Gap: 1.802 eV
Transition (v -> c):
  (s=0, k=0, n=3, [0.00, 0.00, 0.00]) -> (s=0, k=0, n=4, [0.00, 0.00, 0.00])

Forces in eV/Ang:
  0 Na    0.41941    0.11847    0.37934
  1 Na    0.34413   -0.38549   -0.26102
  2 Na   -0.19692   -0.41363    0.34892
  3 Na    0.19996    0.41563   -0.35074
  4 Na   -0.42168   -0.11947   -0.37841
  5 Na   -0.34442    0.38419    0.26169

System changes: positions 

Initializing position-dependent things.

Density initialized from wave functions
           .--------------------------------------.  
          /|                                      |  
         / |                                      |  
        /  |                                      |  
       /   |                                      |  
      /    |                                      |  
     /     |                                      |  
    /      |                                      |  
   /       |                                      |  
  /        |                                      |  
 *         |                                      |  
 |         |                                      |  
 |         |                                      |  
 |         |            Na    Na                  |  
 |         |           Na                         |  
 |         |                                      |  
 |         |                 Na                   |  
 |         |          Na    Na                    |  
 |         |                                      |  
 |         |                                      |  
 |         .--------------------------------------.  
 |        /                                      /   
 |       /                                      /    
 |      /                                      /     
 |     /                                      /      
 |    /                                      /       
 |   /                                      /        
 |  /                                      /         
 | /                                      /          
 |/                                      /           
 *--------------------------------------*            

Positions:
   0 Na     9.876097    8.511565    9.663677    ( 0.0000,  0.0000,  0.0000)
   1 Na     9.571524    6.490966    7.088292    ( 0.0000,  0.0000,  0.0000)
   2 Na     7.387037    6.361250    9.548569    ( 0.0000,  0.0000,  0.0000)
   3 Na     8.985970    9.711243    6.731528    ( 0.0000,  0.0000,  0.0000)
   4 Na     6.498127    7.560295    6.615285    ( 0.0000,  0.0000,  0.0000)
   5 Na     6.802267    9.581366    9.191274    ( 0.0000,  0.0000,  0.0000)

Unit cell:
           periodic     x           y           z      points  spacing
  1. axis:    no    16.000000    0.000000    0.000000    64     0.2500
  2. axis:    no     0.000000   16.000000    0.000000    64     0.2500
  3. axis:    no     0.000000    0.000000   16.000000    64     0.2500

  Lengths:  16.000000  16.000000  16.000000
  Angles:   90.000000  90.000000  90.000000

Effective grid spacing dv^(1/3) = 0.2500

                     log10-error:    total        iterations:
           time      wfs    density  energy       fermi  poisson
iter:   1  14:28:33          +inf    -4.082655    4      1      
iter:   2  14:28:34         -2.04    -4.081895    3      1      
iter:   3  14:28:36         -2.17    -4.080928    4      1      
iter:   4  14:28:37         -3.07    -4.080919    3      1      
iter:   5  14:28:38         -3.47    -4.080918    2      1      
iter:   6  14:28:39         -3.75    -4.080918    2      1      
iter:   7  14:28:40         -4.38    -4.080918    2      1      

Converged after 7 iterations.

Dipole moment: (-0.000015, -0.000007, -0.000045) |e|*Ang

Energy contributions relative to reference atoms: (reference = -26392.251304)

Kinetic:        +25.703716
Potential:      -21.337425
External:        +0.000000
XC:              -8.389497
Entropy (-ST):   -0.190952
Local:           +0.037763
--------------------------
Free energy:     -4.176394
Extrapolated:    -4.080918

Fermi level: -2.93016

 Band  Eigenvalues  Occupancy
    0     -4.95329    2.00000
    1     -2.96534    1.33802
    2     -2.96473    1.33253
    3     -2.96438    1.32945
    4     -1.30808    0.00000
    5     -1.30576    0.00000
    6      0.56474    0.00000
    7      1.97243    0.00000
    8      1.97510    0.00000
    9      1.97655    0.00000

Gap: 1.656 eV
Transition (v -> c):
  (s=0, k=0, n=3, [0.00, 0.00, 0.00]) -> (s=0, k=0, n=4, [0.00, 0.00, 0.00])

Forces in eV/Ang:
  0 Na    0.16130    0.04503    0.14659
  1 Na    0.13086   -0.14712   -0.10037
  2 Na   -0.07519   -0.15897    0.13206
  3 Na    0.07619    0.15905   -0.13363
  4 Na   -0.16139   -0.04609   -0.14550
  5 Na   -0.13288    0.14653    0.10119

System changes: positions 

Initializing position-dependent things.

Density initialized from wave functions
           .--------------------------------------.  
          /|                                      |  
         / |                                      |  
        /  |                                      |  
       /   |                                      |  
      /    |                                      |  
     /     |                                      |  
    /      |                                      |  
   /       |                                      |  
  /        |                                      |  
 *         |                                      |  
 |         |                                      |  
 |         |           Na                         |  
 |         |                   Na                 |  
 |         |           Na                         |  
 |         |                                      |  
 |         |                 Na                   |  
 |         |         Na     Na                    |  
 |         |                                      |  
 |         |                                      |  
 |         .--------------------------------------.  
 |        /                                      /   
 |       /                                      /    
 |      /                                      /     
 |     /                                      /      
 |    /                                      /       
 |   /                                      /        
 |  /                                      /         
 | /                                      /          
 |/                                      /           
 *--------------------------------------*            

Positions:
   0 Na     9.948164    8.531830    9.728979    ( 0.0000,  0.0000,  0.0000)
   1 Na     9.630397    6.424945    7.043452    ( 0.0000,  0.0000,  0.0000)
   2 Na     7.353286    6.290181    9.608156    ( 0.0000,  0.0000,  0.0000)
   3 Na     9.020189    9.782530    6.671493    ( 0.0000,  0.0000,  0.0000)
   4 Na     6.425831    7.539752    6.550258    ( 0.0000,  0.0000,  0.0000)
   5 Na     6.743029    9.647163    9.236329    ( 0.0000,  0.0000,  0.0000)

Unit cell:
           periodic     x           y           z      points  spacing
  1. axis:    no    16.000000    0.000000    0.000000    64     0.2500
  2. axis:    no     0.000000   16.000000    0.000000    64     0.2500
  3. axis:    no     0.000000    0.000000   16.000000    64     0.2500

  Lengths:  16.000000  16.000000  16.000000
  Angles:   90.000000  90.000000  90.000000

Effective grid spacing dv^(1/3) = 0.2500

                     log10-error:    total        iterations:
           time      wfs    density  energy       fermi  poisson
iter:   1  14:28:42          +inf    -4.154050    3      1      
iter:   2  14:28:43         -1.99    -4.153604    3      1      
iter:   3  14:28:44         -2.16    -4.153194    4      1      
iter:   4  14:28:45         -2.79    -4.153167    3      1      
iter:   5  14:28:46         -3.06    -4.153157    2      1      
iter:   6  14:28:48         -3.44    -4.153156    2      1      
iter:   7  14:28:49         -3.94    -4.153156    2      1      
iter:   8  14:28:50         -4.15    -4.153156    2      1      

Converged after 8 iterations.

Dipole moment: (-0.000007, -0.000010, -0.000001) |e|*Ang

Energy contributions relative to reference atoms: (reference = -26392.251304)

Kinetic:        +20.644765
Potential:      -17.416546
External:        +0.000000
XC:              -7.316755
Entropy (-ST):   -0.190953
Local:           +0.030856
--------------------------
Free energy:     -4.248632
Extrapolated:    -4.153156

Fermi level: -2.90405

 Band  Eigenvalues  Occupancy
    0     -4.81214    2.00000
    1     -2.93915    1.33724
    2     -2.93863    1.33264
    3     -2.93835    1.33013
    4     -1.39029    0.00000
    5     -1.38806    0.00000
    6      0.90186    0.00000
    7      2.08232    0.00000
    8      2.08332    0.00000
    9      2.08408    0.00000

Gap: 1.548 eV
Transition (v -> c):
  (s=0, k=0, n=3, [0.00, 0.00, 0.00]) -> (s=0, k=0, n=4, [0.00, 0.00, 0.00])

Forces in eV/Ang:
  0 Na    0.02368    0.00626    0.02148
  1 Na    0.01933   -0.02036   -0.01574
  2 Na   -0.01129   -0.02320    0.01835
  3 Na    0.01060    0.02182   -0.01810
  4 Na   -0.02287   -0.00722   -0.02188
  5 Na   -0.01873    0.02088    0.01491

System changes: positions 

Initializing position-dependent things.

Density initialized from wave functions
           .--------------------------------------.  
          /|                                      |  
         / |                                      |  
        /  |                                      |  
       /   |                                      |  
      /    |                                      |  
     /     |                                      |  
    /      |                                      |  
   /       |                                      |  
  /        |                                      |  
 *         |                                      |  
 |         |                                      |  
 |         |           Na      Na                 |  
 |         |                                      |  
 |         |           Na                         |  
 |         |                                      |  
 |         |                 Na                   |  
 |         |         Na      Na                   |  
 |         |                                      |  
 |         |                                      |  
 |         .--------------------------------------.  
 |        /                                      /   
 |       /                                      /    
 |      /                                      /     
 |     /                                      /      
 |    /                                      /       
 |   /                                      /        
 |  /                                      /         
 | /                                      /          
 |/                                      /           
 *--------------------------------------*            

Positions:
   0 Na     9.964005    8.536215    9.743345    ( 0.0000,  0.0000,  0.0000)
   1 Na     9.643318    6.410651    7.033434    ( 0.0000,  0.0000,  0.0000)
   2 Na     7.345844    6.274589    9.621034    ( 0.0000,  0.0000,  0.0000)
   3 Na     9.027606    9.797936    6.658564    ( 0.0000,  0.0000,  0.0000)
   4 Na     6.410083    7.535158    6.535887    ( 0.0000,  0.0000,  0.0000)
   5 Na     6.730116    9.661496    9.246257    ( 0.0000,  0.0000,  0.0000)

Unit cell:
           periodic     x           y           z      points  spacing
  1. axis:    no    16.000000    0.000000    0.000000    64     0.2500
  2. axis:    no     0.000000   16.000000    0.000000    64     0.2500
  3. axis:    no     0.000000    0.000000   16.000000    64     0.2500

  Lengths:  16.000000  16.000000  16.000000
  Angles:   90.000000  90.000000  90.000000

Effective grid spacing dv^(1/3) = 0.2500

                     log10-error:    total        iterations:
           time      wfs    density  energy       fermi  poisson
iter:   1  14:28:52          +inf    -4.155115    3      1      
iter:   2  14:28:53         -2.56    -4.155089    3      1      
iter:   3  14:28:54         -2.75    -4.155069    3      1      
iter:   4  14:28:55         -3.34    -4.155068    2      1      
iter:   5  14:28:56         -3.58    -4.155067    2      1      
iter:   6  14:28:57         -3.88    -4.155067    2      1      
iter:   7  14:28:58         -4.30    -4.155067    2      1      

Converged after 7 iterations.

Dipole moment: (-0.000013, -0.000021, -0.000003) |e|*Ang

Energy contributions relative to reference atoms: (reference = -26392.251304)

Kinetic:        +19.647750
Potential:      -16.639952
External:        +0.000000
XC:              -7.097029
Entropy (-ST):   -0.190953
Local:           +0.029640
--------------------------
Free energy:     -4.250544
Extrapolated:    -4.155067

Fermi level: -2.89936

 Band  Eigenvalues  Occupancy
    0     -4.78300    2.00000
    1     -2.93442    1.33691
    2     -2.93394    1.33264
    3     -2.93370    1.33045
    4     -1.40868    0.00000
    5     -1.40658    0.00000
    6      0.98524    0.00000
    7      2.11131    0.00000
    8      2.11195    0.00000
    9      2.11251    0.00000

Gap: 1.525 eV
Transition (v -> c):
  (s=0, k=0, n=3, [0.00, 0.00, 0.00]) -> (s=0, k=0, n=4, [0.00, 0.00, 0.00])

Forces in eV/Ang:
  0 Na   -0.00080   -0.00038   -0.00082
  1 Na   -0.00060    0.00189   -0.00014
  2 Na    0.00035    0.00128   -0.00172
  3 Na   -0.00118   -0.00269    0.00213
  4 Na    0.00173   -0.00012    0.00074
  5 Na    0.00140   -0.00084   -0.00066

System changes: positions 

Initializing position-dependent things.

Density initialized from wave functions
           .--------------------------------------.  
          /|                                      |  
         / |                                      |  
        /  |                                      |  
       /   |                                      |  
      /    |                                      |  
     /     |                                      |  
    /      |                                      |  
   /       |                                      |  
  /        |                                      |  
 *         |                                      |  
 |         |             Na                       |  
 |         |                                      |  
 |         |                   Na                 |  
 |         |             Naa                      |  
 |         |         Na                           |  
 |         |                                      |  
 |         |               Na                     |  
 |         |                                      |  
 |         |                                      |  
 |         .--------------------------------------.  
 |        /                                      /   
 |       /                                      /    
 |      /                                      /     
 |     /                                      /      
 |    /                                      /       
 |   /                                      /        
 |  /                                      /         
 | /                                      /          
 |/                                      /           
 *--------------------------------------*            

Positions:
   0 Na     7.339761    9.252681   10.496510    ( 0.0000,  0.0000,  0.0000)
   1 Na     6.034524    7.939668    8.293428    ( 0.0000,  0.0000,  0.0000)
   2 Na     9.881565    8.922280    9.195489    ( 0.0000,  0.0000,  0.0000)
   3 Na     7.716305   10.235424    7.817270    ( 0.0000,  0.0000,  0.0000)
   4 Na     8.575057    7.616248    6.990340    ( 0.0000,  0.0000,  0.0000)
   5 Na     8.199811    6.636310    9.667397    ( 0.0000,  0.0000,  0.0000)

Unit cell:
           periodic     x           y           z      points  spacing
  1. axis:    no    16.000000    0.000000    0.000000    64     0.2500
  2. axis:    no     0.000000   16.000000    0.000000    64     0.2500
  3. axis:    no     0.000000    0.000000   16.000000    64     0.2500

  Lengths:  16.000000  16.000000  16.000000
  Angles:   90.000000  90.000000  90.000000

Effective grid spacing dv^(1/3) = 0.2500

                     log10-error:    total        iterations:
           time      wfs    density  energy       fermi  poisson
iter:   1  14:29:04          +inf    -3.385459    31     1      
iter:   2  14:29:05         -0.40    -3.031414    3      1      
iter:   3  14:29:06         -0.67    -2.923983    4      1      
iter:   4  14:29:07         -1.02    -2.911495    3      1      
iter:   5  14:29:09         -1.24    -2.903825    3      1      
iter:   6  14:29:10         -1.65    -2.902720    3      1      
iter:   7  14:29:11         -2.37    -2.902669    3      1      
iter:   8  14:29:12         -2.56    -2.902650    3      1      
iter:   9  14:29:13         -3.01    -2.902649    3      1      
iter:  10  14:29:14         -3.30    -2.902648    3      1      
iter:  11  14:29:15         -3.81    -2.902648    2      1      
iter:  12  14:29:17         -4.10    -2.902648    2      1      

Converged after 12 iterations.

Dipole moment: (-0.000308, 0.000559, -0.000138) |e|*Ang

Energy contributions relative to reference atoms: (reference = -26392.251304)

Kinetic:        +47.842498
Potential:      -38.267777
External:        +0.000000
XC:             -12.449260
Entropy (-ST):   -0.190947
Local:           +0.067364
--------------------------
Free energy:     -2.998121
Extrapolated:    -2.902648

Fermi level: -3.04533

 Band  Eigenvalues  Occupancy
    0     -5.43386    2.00000
    1     -3.08073    1.33991
    2     -3.08028    1.33588
    3     -3.07897    1.32421
    4     -1.08521    0.00000
    5     -1.08234    0.00000
    6     -0.23337    0.00000
    7      1.81258    0.00000
    8      1.81504    0.00000
    9      1.82190    0.00000

Gap: 1.994 eV
Transition (v -> c):
  (s=0, k=0, n=3, [0.00, 0.00, 0.00]) -> (s=0, k=0, n=4, [0.00, 0.00, 0.00])

Forces in eV/Ang:
  0 Na   -0.39047    0.51518    1.09769
  1 Na   -1.20514   -0.30024   -0.28293
  2 Na    1.20443    0.31134    0.28042
  3 Na   -0.15111    1.11774   -0.57489
  4 Na    0.38896   -0.51121   -1.10274
  5 Na    0.15321   -1.13108    0.58327

System changes: positions 

Initializing position-dependent things.

Density initialized from wave functions
           .--------------------------------------.  
          /|                                      |  
         / |                                      |  
        /  |                                      |  
       /   |                                      |  
      /    |                                      |  
     /     |                                      |  
    /      |                                      |  
   /       |                                      |  
  /        |                                      |  
 *         |                                      |  
 |         |             Na                       |  
 |         |                                      |  
 |         |                   Na                 |  
 |         |             Naa                      |  
 |         |        Na                            |  
 |         |                                      |  
 |         |               Na                     |  
 |         |                                      |  
 |         |                                      |  
 |         .--------------------------------------.  
 |        /                                      /   
 |       /                                      /    
 |      /                                      /     
 |     /                                      /      
 |    /                                      /       
 |   /                                      /        
 |  /                                      /         
 | /                                      /          
 |/                                      /           
 *--------------------------------------*            

Positions:
   0 Na     7.289730    9.318690   10.637156    ( 0.0000,  0.0000,  0.0000)
   1 Na     5.880110    7.901199    8.257177    ( 0.0000,  0.0000,  0.0000)
   2 Na    10.035888    8.962172    9.231419    ( 0.0000,  0.0000,  0.0000)
   3 Na     7.696943   10.378639    7.743610    ( 0.0000,  0.0000,  0.0000)
   4 Na     8.624894    7.550747    6.849047    ( 0.0000,  0.0000,  0.0000)
   5 Na     8.219442    6.491386    9.742131    ( 0.0000,  0.0000,  0.0000)

Unit cell:
           periodic     x           y           z      points  spacing
  1. axis:    no    16.000000    0.000000    0.000000    64     0.2500
  2. axis:    no     0.000000   16.000000    0.000000    64     0.2500
  3. axis:    no     0.000000    0.000000   16.000000    64     0.2500

  Lengths:  16.000000  16.000000  16.000000
  Angles:   90.000000  90.000000  90.000000

Effective grid spacing dv^(1/3) = 0.2500

                     log10-error:    total        iterations:
           time      wfs    density  energy       fermi  poisson
iter:   1  14:29:18          +inf    -3.788458    4      1      
iter:   2  14:29:20         -1.82    -3.785482    3      1      
iter:   3  14:29:21         -1.97    -3.782674    3      1      
iter:   4  14:29:22         -2.33    -3.782329    3      1      
iter:   5  14:29:23         -2.71    -3.782274    3      1      
iter:   6  14:29:24         -3.53    -3.782274    2      1      
iter:   7  14:29:25         -4.02    -3.782274    2      1      

Converged after 7 iterations.

Dipole moment: (-0.000246, 0.000301, -0.000037) |e|*Ang

Energy contributions relative to reference atoms: (reference = -26392.251304)

Kinetic:        +33.864742
Potential:      -27.614667
External:        +0.000000
XC:              -9.986283
Entropy (-ST):   -0.190949
Local:           +0.049409
--------------------------
Free energy:     -3.877749
Extrapolated:    -3.782274

Fermi level: -2.97335

 Band  Eigenvalues  Occupancy
    0     -5.15351    2.00000
    1     -3.00861    1.33866
    2     -3.00828    1.33570
    3     -3.00715    1.32564
    4     -1.20601    0.00000
    5     -1.20325    0.00000
    6      0.19937    0.00000
    7      1.87987    0.00000
    8      1.88167    0.00000
    9      1.88720    0.00000

Gap: 1.801 eV
Transition (v -> c):
  (s=0, k=0, n=3, [0.00, 0.00, 0.00]) -> (s=0, k=0, n=4, [0.00, 0.00, 0.00])

Forces in eV/Ang:
  0 Na   -0.17710    0.23171    0.49735
  1 Na   -0.54455   -0.13623   -0.12807
  2 Na    0.54434    0.14085    0.12657
  3 Na   -0.06796    0.50564   -0.25983
  4 Na    0.17653   -0.23298   -0.49934
  5 Na    0.06901   -0.51054    0.26308

System changes: positions 

Initializing position-dependent things.

Density initialized from wave functions
           .--------------------------------------.  
          /|                                      |  
         / |                                      |  
        /  |                                      |  
       /   |                                      |  
      /    |                                      |  
     /     |                                      |  
    /      |                                      |  
   /       |                                      |  
  /        |                                      |  
 *         |                                      |  
 |         |             Na                       |  
 |         |                                      |  
 |         |                   Na                 |  
 |         |             Naa                      |  
 |         |        Na                            |  
 |         |                                      |  
 |         |               Na                     |  
 |         |                                      |  
 |         |                                      |  
 |         .--------------------------------------.  
 |        /                                      /   
 |       /                                      /    
 |      /                                      /     
 |     /                                      /      
 |    /                                      /       
 |   /                                      /        
 |  /                                      /         
 | /                                      /          
 |/                                      /           
 *--------------------------------------*            

Positions:
   0 Na     7.250048    9.370783   10.748644    ( 0.0000,  0.0000,  0.0000)
   1 Na     5.757910    7.870678    8.228458    ( 0.0000,  0.0000,  0.0000)
   2 Na    10.158030    8.993765    9.259836    ( 0.0000,  0.0000,  0.0000)
   3 Na     7.681663   10.492055    7.685308    ( 0.0000,  0.0000,  0.0000)
   4 Na     8.664439    7.498643    6.737086    ( 0.0000,  0.0000,  0.0000)
   5 Na     8.234949    6.376769    9.801209    ( 0.0000,  0.0000,  0.0000)

Unit cell:
           periodic     x           y           z      points  spacing
  1. axis:    no    16.000000    0.000000    0.000000    64     0.2500
  2. axis:    no     0.000000   16.000000    0.000000    64     0.2500
  3. axis:    no     0.000000    0.000000   16.000000    64     0.2500

  Lengths:  16.000000  16.000000  16.000000
  Angles:   90.000000  90.000000  90.000000

Effective grid spacing dv^(1/3) = 0.2500

                     log10-error:    total        iterations:
           time      wfs    density  energy       fermi  poisson
iter:   1  14:29:27          +inf    -4.083746    4      1      
iter:   2  14:29:28         -2.04    -4.082986    3      1      
iter:   3  14:29:29         -2.17    -4.082026    4      1      
iter:   4  14:29:30         -2.97    -4.082012    3      1      
iter:   5  14:29:32         -3.46    -4.082011    2      1      
iter:   6  14:29:33         -3.73    -4.082011    2      1      
iter:   7  14:29:34         -4.38    -4.082011    2      1      

Converged after 7 iterations.

Dipole moment: (-0.000282, 0.000252, -0.000042) |e|*Ang

Energy contributions relative to reference atoms: (reference = -26392.251304)

Kinetic:        +25.666870
Potential:      -21.309383
External:        +0.000000
XC:              -8.381979
Entropy (-ST):   -0.190951
Local:           +0.037956
--------------------------
Free energy:     -4.177486
Extrapolated:    -4.082011

Fermi level: -2.92846

 Band  Eigenvalues  Occupancy
    0     -4.95081    2.00000
    1     -2.96361    1.33770
    2     -2.96336    1.33546
    3     -2.96239    1.32684
    4     -1.30729    0.00000
    5     -1.30464    0.00000
    6      0.56833    0.00000
    7      1.97478    0.00000
    8      1.97585    0.00000
    9      1.97976    0.00000

Gap: 1.655 eV
Transition (v -> c):
  (s=0, k=0, n=3, [0.00, 0.00, 0.00]) -> (s=0, k=0, n=4, [0.00, 0.00, 0.00])

Forces in eV/Ang:
  0 Na   -0.06711    0.08897    0.19089
  1 Na   -0.20811   -0.05191   -0.04803
  2 Na    0.20741    0.05409    0.04791
  3 Na   -0.02567    0.19327   -0.09853
  4 Na    0.06794   -0.08923   -0.19056
  5 Na    0.02614   -0.19444    0.09930

System changes: positions 

Initializing position-dependent things.

Density initialized from wave functions
           .--------------------------------------.  
          /|                                      |  
         / |                                      |  
        /  |                                      |  
       /   |                                      |  
      /    |                                      |  
     /     |                                      |  
    /      |                                      |  
   /       |                                      |  
  /        |                                      |  
 *         |                                      |  
 |         |            Na                        |  
 |         |                                      |  
 |         |                    Na                |  
 |         |             Naa                      |  
 |         |        Na                            |  
 |         |                                      |  
 |         |               Na                     |  
 |         |                                      |  
 |         |                                      |  
 |         .--------------------------------------.  
 |        /                                      /   
 |       /                                      /    
 |      /                                      /     
 |     /                                      /      
 |    /                                      /       
 |   /                                      /        
 |  /                                      /         
 | /                                      /          
 |/                                      /           
 *--------------------------------------*            

Positions:
   0 Na     7.219739    9.410666   10.834180    ( 0.0000,  0.0000,  0.0000)
   1 Na     5.664386    7.847316    8.206621    ( 0.0000,  0.0000,  0.0000)
   2 Na    10.251412    9.017997    9.281499    ( 0.0000,  0.0000,  0.0000)
   3 Na     7.670037   10.578893    7.640813    ( 0.0000,  0.0000,  0.0000)
   4 Na     8.694826    7.458628    6.651388    ( 0.0000,  0.0000,  0.0000)
   5 Na     8.246765    6.289190    9.846190    ( 0.0000,  0.0000,  0.0000)

Unit cell:
           periodic     x           y           z      points  spacing
  1. axis:    no    16.000000    0.000000    0.000000    64     0.2500
  2. axis:    no     0.000000   16.000000    0.000000    64     0.2500
  3. axis:    no     0.000000    0.000000   16.000000    64     0.2500

  Lengths:  16.000000  16.000000  16.000000
  Angles:   90.000000  90.000000  90.000000

Effective grid spacing dv^(1/3) = 0.2500

                     log10-error:    total        iterations:
           time      wfs    density  energy       fermi  poisson
iter:   1  14:29:36          +inf    -4.154046    3      1      
iter:   2  14:29:37         -1.99    -4.153601    3      1      
iter:   3  14:29:38         -2.16    -4.153195    4      1      
iter:   4  14:29:39         -2.77    -4.153167    3      1      
iter:   5  14:29:40         -3.04    -4.153156    2      1      
iter:   6  14:29:41         -3.37    -4.153155    2      1      
iter:   7  14:29:42         -3.84    -4.153155    2      1      
iter:   8  14:29:44         -4.06    -4.153155    2      1      

Converged after 8 iterations.

Dipole moment: (-0.000317, 0.000384, -0.000042) |e|*Ang

Energy contributions relative to reference atoms: (reference = -26392.251304)

Kinetic:        +20.623681
Potential:      -17.399843
External:        +0.000000
XC:              -7.312294
Entropy (-ST):   -0.190952
Local:           +0.030778
--------------------------
Free energy:     -4.248631
Extrapolated:    -4.153155

Fermi level: -2.90231

 Band  Eigenvalues  Occupancy
    0     -4.80994    2.00000
    1     -2.93740    1.33716
    2     -2.93715    1.33498
    3     -2.93635    1.32785
    4     -1.38907    0.00000
    5     -1.38661    0.00000
    6      0.90502    0.00000
    7      2.08416    0.00000
    8      2.08495    0.00000
    9      2.08724    0.00000

Gap: 1.547 eV
Transition (v -> c):
  (s=0, k=0, n=3, [0.00, 0.00, 0.00]) -> (s=0, k=0, n=4, [0.00, 0.00, 0.00])

Forces in eV/Ang:
  0 Na   -0.00845    0.01323    0.02680
  1 Na   -0.02818   -0.00778   -0.00631
  2 Na    0.02897    0.00778    0.00642
  3 Na   -0.00275    0.02563   -0.01336
  4 Na    0.01040   -0.01202   -0.02681
  5 Na    0.00336   -0.02738    0.01334

System changes: positions 

Initializing position-dependent things.

Density initialized from wave functions
           .--------------------------------------.  
          /|                                      |  
         / |                                      |  
        /  |                                      |  
       /   |                                      |  
      /    |                                      |  
     /     |                                      |  
    /      |                                      |  
   /       |                                      |  
  /        |                                      |  
 *         |                                      |  
 |         |            Na                        |  
 |         |                                      |  
 |         |                    Na                |  
 |         |             Naa                      |  
 |         |        Na                            |  
 |         |                                      |  
 |         |               Na                     |  
 |         |                                      |  
 |         |                                      |  
 |         .--------------------------------------.  
 |        /                                      /   
 |       /                                      /    
 |      /                                      /     
 |     /                                      /      
 |    /                                      /       
 |   /                                      /        
 |  /                                      /         
 | /                                      /          
 |/                                      /           
 *--------------------------------------*            

Positions:
   0 Na     7.213503    9.419212   10.852272    ( 0.0000,  0.0000,  0.0000)
   1 Na     5.644797    7.842306    8.202100    ( 0.0000,  0.0000,  0.0000)
   2 Na    10.271095    9.023152    9.286013    ( 0.0000,  0.0000,  0.0000)
   3 Na     7.667726   10.597001    7.631510    ( 0.0000,  0.0000,  0.0000)
   4 Na     8.701396    7.450242    6.633281    ( 0.0000,  0.0000,  0.0000)
   5 Na     8.249204    6.270700    9.855561    ( 0.0000,  0.0000,  0.0000)

Unit cell:
           periodic     x           y           z      points  spacing
  1. axis:    no    16.000000    0.000000    0.000000    64     0.2500
  2. axis:    no     0.000000   16.000000    0.000000    64     0.2500
  3. axis:    no     0.000000    0.000000   16.000000    64     0.2500

  Lengths:  16.000000  16.000000  16.000000
  Angles:   90.000000  90.000000  90.000000

Effective grid spacing dv^(1/3) = 0.2500

                     log10-error:    total        iterations:
           time      wfs    density  energy       fermi  poisson
iter:   1  14:29:45          +inf    -4.154968    3      1      
iter:   2  14:29:47         -2.58    -4.154944    3      1      
iter:   3  14:29:48         -2.77    -4.154926    3      1      
iter:   4  14:29:49         -3.34    -4.154925    2      1      
iter:   5  14:29:50         -3.59    -4.154924    2      1      
iter:   6  14:29:51         -3.87    -4.154924    2      1      
iter:   7  14:29:52         -4.29    -4.154924    2      1      

Converged after 7 iterations.

Dipole moment: (-0.000327, 0.000408, -0.000047) |e|*Ang

Energy contributions relative to reference atoms: (reference = -26392.251304)

Kinetic:        +19.668149
Potential:      -16.655621
External:        +0.000000
XC:              -7.101489
Entropy (-ST):   -0.190952
Local:           +0.029513
--------------------------
Free energy:     -4.250400
Extrapolated:    -4.154924

Fermi level: -2.89775

 Band  Eigenvalues  Occupancy
    0     -4.78191    2.00000
    1     -2.93285    1.33727
    2     -2.93255    1.33456
    3     -2.93183    1.32817
    4     -1.40668    0.00000
    5     -1.40434    0.00000
    6      0.98513    0.00000
    7      2.11167    0.00000
    8      2.11277    0.00000
    9      2.11462    0.00000

Gap: 1.525 eV
Transition (v -> c):
  (s=0, k=0, n=3, [0.00, 0.00, 0.00]) -> (s=0, k=0, n=4, [0.00, 0.00, 0.00])

Forces in eV/Ang:
  0 Na    0.00152    0.00046   -0.00059
  1 Na    0.00199   -0.00034    0.00086
  2 Na   -0.00159    0.00011   -0.00043
  3 Na    0.00149   -0.00237    0.00088
  4 Na    0.00045    0.00101    0.00098
  5 Na   -0.00056    0.00099   -0.00100

System changes: positions 

Initializing position-dependent things.

Density initialized from wave functions
           .--------------------------------------.  
          /|                                      |  
         / |                                      |  
        /  |                                      |  
       /   |                                      |  
      /    |                                      |  
     /     |                                      |  
    /      |                                      |  
   /       |                                      |  
  /        |                                      |  
 *         |                                      |  
 |         |                                      |  
 |         |                                      |  
 |         |            NNa   Na                  |  
 |         |                                      |  
 |         |                Na                    |  
 |         |         Na  Na                       |  
 |         |                                      |  
 |         |                                      |  
 |         |                                      |  
 |         .--------------------------------------.  
 |        /                                      /   
 |       /                                      /    
 |      /                                      /     
 |     /                                      /      
 |    /                                      /       
 |   /                                      /        
 |  /                                      /         
 | /                                      /          
 |/                                      /           
 *--------------------------------------*            

Positions:
   0 Na     8.556284   10.020446    7.077400    ( 0.0000,  0.0000,  0.0000)
   1 Na     7.037697    9.149178    9.377484    ( 0.0000,  0.0000,  0.0000)
   2 Na     8.076701    7.202001    7.486173    ( 0.0000,  0.0000,  0.0000)
   3 Na     8.081970    6.641254   10.310144    ( 0.0000,  0.0000,  0.0000)
   4 Na     5.903692    8.938176    6.745658    ( 0.0000,  0.0000,  0.0000)
   5 Na     9.875887    8.636816    9.227752    ( 0.0000,  0.0000,  0.0000)

Unit cell:
           periodic     x           y           z      points  spacing
  1. axis:    no    16.000000    0.000000    0.000000    64     0.2500
  2. axis:    no     0.000000   16.000000    0.000000    64     0.2500
  3. axis:    no     0.000000    0.000000   16.000000    64     0.2500

  Lengths:  16.000000  16.000000  16.000000
  Angles:   90.000000  90.000000  90.000000

Effective grid spacing dv^(1/3) = 0.2500

                     log10-error:    total        iterations:
           time      wfs    density  energy       fermi  poisson
iter:   1  14:29:57          +inf    -3.550766    32     1      
iter:   2  14:29:58         -0.46    -3.356578    2      1      
iter:   3  14:30:00         -0.61    -3.177512    2      1      
iter:   4  14:30:01         -1.35    -3.172203    2      1      
iter:   5  14:30:02         -1.62    -3.171727    2      1      
iter:   6  14:30:03         -2.06    -3.171899    2      1      
iter:   7  14:30:04         -2.38    -3.171733    2      1      
iter:   8  14:30:05         -2.82    -3.171668    2      1      
iter:   9  14:30:07         -3.07    -3.171638    2      1      
iter:  10  14:30:08         -3.46    -3.171639    1      1      
iter:  11  14:30:09         -3.72    -3.171646    1      1      
iter:  12  14:30:10         -4.05    -3.171649    1      1      

Converged after 12 iterations.

Dipole moment: (-0.151305, -0.108048, 0.024633) |e|*Ang

Energy contributions relative to reference atoms: (reference = -26392.251304)

Kinetic:        +48.635005
Potential:      -39.235540
External:        +0.000000
XC:             -12.587086
Entropy (-ST):   -0.103464
Local:           +0.067703
--------------------------
Free energy:     -3.223381
Extrapolated:    -3.171649

Fermi level: -2.75365

 Band  Eigenvalues  Occupancy
    0     -5.25525    2.00000
    1     -3.37780    1.99999
    2     -2.81914    1.57494
    3     -2.68817    0.42507
    4     -1.41117    0.00000
    5     -1.20387    0.00000
    6      0.29972    0.00000
    7      1.13512    0.00000
    8      2.06408    0.00000
    9      2.52018    0.00000

Gap: 0.131 eV
Transition (v -> c):
  (s=0, k=0, n=2, [0.00, 0.00, 0.00]) -> (s=0, k=0, n=3, [0.00, 0.00, 0.00])

Forces in eV/Ang:
  0 Na    0.57954    0.98998   -0.70404
  1 Na   -0.76214    0.52224    0.80079
  2 Na    0.05135   -1.00883   -0.68064
  3 Na   -0.14760   -0.81698    0.75847
  4 Na   -0.97581    0.04062   -0.57722
  5 Na    1.25259    0.27547    0.40255

System changes: positions 

Initializing position-dependent things.

Density initialized from wave functions
           .--------------------------------------.  
          /|                                      |  
         / |                                      |  
        /  |                                      |  
       /   |                                      |  
      /    |                                      |  
     /     |                                      |  
    /      |                                      |  
   /       |                                      |  
  /        |                                      |  
 *         |                                      |  
 |         |                                      |  
 |         |            Na                        |  
 |         |             Na    Na                 |  
 |         |                                      |  
 |         |                Na                    |  
 |         |         Na  Na                       |  
 |         |                                      |  
 |         |                                      |  
 |         |                                      |  
 |         .--------------------------------------.  
 |        /                                      /   
 |       /                                      /    
 |      /                                      /     
 |     /                                      /      
 |    /                                      /       
 |   /                                      /        
 |  /                                      /         
 | /                                      /          
 |/                                      /           
 *--------------------------------------*            

Positions:
   0 Na     8.632926   10.151367    6.984294    ( 0.0000,  0.0000,  0.0000)
   1 Na     6.936907    9.218242    9.483385    ( 0.0000,  0.0000,  0.0000)
   2 Na     8.083493    7.068588    7.396160    ( 0.0000,  0.0000,  0.0000)
   3 Na     8.062451    6.533211   10.410450    ( 0.0000,  0.0000,  0.0000)
   4 Na     5.774644    8.943548    6.669323    ( 0.0000,  0.0000,  0.0000)
   5 Na    10.041537    8.673246    9.280987    ( 0.0000,  0.0000,  0.0000)

Unit cell:
           periodic     x           y           z      points  spacing
  1. axis:    no    16.000000    0.000000    0.000000    64     0.2500
  2. axis:    no     0.000000   16.000000    0.000000    64     0.2500
  3. axis:    no     0.000000    0.000000   16.000000    64     0.2500

  Lengths:  16.000000  16.000000  16.000000
  Angles:   90.000000  90.000000  90.000000

Effective grid spacing dv^(1/3) = 0.2500

                     log10-error:    total        iterations:
           time      wfs    density  energy       fermi  poisson
iter:   1  14:30:12          +inf    -4.018483    3      1      
iter:   2  14:30:13         -1.33    -4.018142    2      1      
iter:   3  14:30:14         -1.81    -4.015394    2      1      
iter:   4  14:30:15         -1.98    -4.012984    2      1      
iter:   5  14:30:16         -2.56    -4.012966    2      1      
iter:   6  14:30:18         -2.78    -4.012954    2      1      
iter:   7  14:30:19         -3.34    -4.012963    2      1      
iter:   8  14:30:20         -3.73    -4.012959    1      1      
iter:   9  14:30:21         -4.06    -4.012957    1      1      

Converged after 9 iterations.

Dipole moment: (-0.151107, -0.107798, 0.024333) |e|*Ang

Energy contributions relative to reference atoms: (reference = -26392.251304)

Kinetic:        +34.449330
Potential:      -28.326277
External:        +0.000000
XC:             -10.129579
Entropy (-ST):   -0.105154
Local:           +0.046147
--------------------------
Free energy:     -4.065534
Extrapolated:    -4.012957

Fermi level: -2.71569

 Band  Eigenvalues  Occupancy
    0     -5.03343    2.00000
    1     -3.29033    1.99998
    2     -2.77925    1.56191
    3     -2.65213    0.43811
    4     -1.42227    0.00000
    5     -1.30155    0.00000
    6      0.51947    0.00000
    7      1.26792    0.00000
    8      2.16964    0.00000
    9      2.62267    0.00000

Gap: 0.127 eV
Transition (v -> c):
  (s=0, k=0, n=2, [0.00, 0.00, 0.00]) -> (s=0, k=0, n=3, [0.00, 0.00, 0.00])

Forces in eV/Ang:
  0 Na    0.26237    0.44127   -0.31171
  1 Na   -0.29128    0.18605    0.29671
  2 Na    0.00725   -0.37800   -0.24784
  3 Na   -0.05653   -0.40850    0.38852
  4 Na   -0.48323    0.03477   -0.30032
  5 Na    0.55902    0.12542    0.17603

System changes: positions 

Initializing position-dependent things.

Density initialized from wave functions
           .--------------------------------------.  
          /|                                      |  
         / |                                      |  
        /  |                                      |  
       /   |                                      |  
      /    |                                      |  
     /     |                                      |  
    /      |                                      |  
   /       |                                      |  
  /        |                                      |  
 *         |                                      |  
 |         |                                      |  
 |         |            Na                        |  
 |         |             Na    Na                 |  
 |         |                                      |  
 |         |                 Na                   |  
 |         |        Na   Na                       |  
 |         |                                      |  
 |         |                                      |  
 |         |                                      |  
 |         .--------------------------------------.  
 |        /                                      /   
 |       /                                      /    
 |      /                                      /     
 |     /                                      /      
 |    /                                      /       
 |   /                                      /        
 |  /                                      /         
 | /                                      /          
 |/                                      /           
 *--------------------------------------*            

Positions:
   0 Na     8.694557   10.255667    6.910417    ( 0.0000,  0.0000,  0.0000)
   1 Na     6.863459    9.266656    9.559237    ( 0.0000,  0.0000,  0.0000)
   2 Na     8.086692    6.972436    7.332304    ( 0.0000,  0.0000,  0.0000)
   3 Na     8.048210    6.440869   10.497490    ( 0.0000,  0.0000,  0.0000)
   4 Na     5.665012    8.950184    6.602425    ( 0.0000,  0.0000,  0.0000)
   5 Na    10.173602    8.702640    9.322917    ( 0.0000,  0.0000,  0.0000)

Unit cell:
           periodic     x           y           z      points  spacing
  1. axis:    no    16.000000    0.000000    0.000000    64     0.2500
  2. axis:    no     0.000000   16.000000    0.000000    64     0.2500
  3. axis:    no     0.000000    0.000000   16.000000    64     0.2500

  Lengths:  16.000000  16.000000  16.000000
  Angles:   90.000000  90.000000  90.000000

Effective grid spacing dv^(1/3) = 0.2500

                     log10-error:    total        iterations:
           time      wfs    density  energy       fermi  poisson
iter:   1  14:30:23          +inf    -4.289808    3      1      
iter:   2  14:30:24         -1.48    -4.292693    2      1      
iter:   3  14:30:25         -1.97    -4.291174    2      1      
iter:   4  14:30:26         -2.14    -4.290285    2      1      
iter:   5  14:30:27         -2.80    -4.290382    2      1      
iter:   6  14:30:28         -3.08    -4.290395    2      1      
iter:   7  14:30:30         -3.47    -4.290406    2      1      
iter:   8  14:30:31         -3.95    -4.290398    2      1      
iter:   9  14:30:32         -4.53    -4.290399    1      1      

Converged after 9 iterations.

Dipole moment: (-0.153740, -0.109516, 0.024743) |e|*Ang

Energy contributions relative to reference atoms: (reference = -26392.251304)

Kinetic:        +26.072301
Potential:      -21.820456
External:        +0.000000
XC:              -8.526141
Entropy (-ST):   -0.106393
Local:           +0.037093
--------------------------
Free energy:     -4.343596
Extrapolated:    -4.290399

Fermi level: -2.70150

 Band  Eigenvalues  Occupancy
    0     -4.86711    2.00000
    1     -3.23101    1.99995
    2     -2.76366    1.55219
    3     -2.63936    0.44786
    4     -1.45813    0.00000
    5     -1.38870    0.00000
    6      0.71564    0.00000
    7      1.43590    0.00000
    8      2.29548    0.00000
    9      2.64330    0.00000

Gap: 0.124 eV
Transition (v -> c):
  (s=0, k=0, n=2, [0.00, 0.00, 0.00]) -> (s=0, k=0, n=3, [0.00, 0.00, 0.00])

Forces in eV/Ang:
  0 Na    0.10676    0.16752   -0.11606
  1 Na   -0.08320    0.01571    0.05895
  2 Na   -0.02650   -0.08648   -0.04178
  3 Na   -0.00533   -0.17912    0.18196
  4 Na   -0.20818    0.03243   -0.14819
  5 Na    0.21660    0.05244    0.06287

System changes: positions 

Initializing position-dependent things.

Density initialized from wave functions
           .--------------------------------------.  
          /|                                      |  
         / |                                      |  
        /  |                                      |  
       /   |                                      |  
      /    |                                      |  
     /     |                                      |  
    /      |                                      |  
   /       |                                      |  
  /        |                                      |  
 *         |                                      |  
 |         |                                      |  
 |         |           Na                         |  
 |         |             Na    Na                 |  
 |         |                                      |  
 |         |                 Na                   |  
 |         |        Na                            |  
 |         |             Na                       |  
 |         |                                      |  
 |         |                                      |  
 |         .--------------------------------------.  
 |        /                                      /   
 |       /                                      /    
 |      /                                      /     
 |     /                                      /      
 |    /                                      /       
 |   /                                      /        
 |  /                                      /         
 | /                                      /          
 |/                                      /           
 *--------------------------------------*            

Positions:
   0 Na     8.742775   10.334737    6.854930    ( 0.0000,  0.0000,  0.0000)
   1 Na     6.815308    9.291020    9.603880    ( 0.0000,  0.0000,  0.0000)
   2 Na     8.083054    6.913623    7.296251    ( 0.0000,  0.0000,  0.0000)
   3 Na     8.040793    6.364151   10.572380    ( 0.0000,  0.0000,  0.0000)
   4 Na     5.574846    8.959552    6.543263    ( 0.0000,  0.0000,  0.0000)
   5 Na    10.274540    8.725928    9.353814    ( 0.0000,  0.0000,  0.0000)

Unit cell:
           periodic     x           y           z      points  spacing
  1. axis:    no    16.000000    0.000000    0.000000    64     0.2500
  2. axis:    no     0.000000   16.000000    0.000000    64     0.2500
  3. axis:    no     0.000000    0.000000   16.000000    64     0.2500

  Lengths:  16.000000  16.000000  16.000000
  Angles:   90.000000  90.000000  90.000000

Effective grid spacing dv^(1/3) = 0.2500

                     log10-error:    total        iterations:
           time      wfs    density  energy       fermi  poisson
iter:   1  14:30:34          +inf    -4.355558    3      1      
iter:   2  14:30:35         -1.77    -4.357588    2      1      
iter:   3  14:30:36         -2.09    -4.356795    2      1      
iter:   4  14:30:37         -2.27    -4.356484    2      1      
iter:   5  14:30:38         -2.90    -4.356529    2      1      
iter:   6  14:30:39         -3.24    -4.356559    2      1      
iter:   7  14:30:41         -3.84    -4.356559    2      1      
iter:   8  14:30:42         -4.02    -4.356554    1      1      

Converged after 8 iterations.

Dipole moment: (-0.163171, -0.115979, 0.026207) |e|*Ang

Energy contributions relative to reference atoms: (reference = -26392.251304)

Kinetic:        +21.176846
Potential:      -17.999675
External:        +0.000000
XC:              -7.512159
Entropy (-ST):   -0.105236
Local:           +0.031051
--------------------------
Free energy:     -4.409172
Extrapolated:    -4.356554

Fermi level: -2.69503

 Band  Eigenvalues  Occupancy
    0     -4.75415    2.00000
    1     -3.19521    1.99991
    2     -2.75855    1.56159
    3     -2.63153    0.43850
    4     -1.50436    0.00000
    5     -1.45935    0.00000
    6      0.91528    0.00000
    7      1.62086    0.00000
    8      2.41199    0.00000
    9      2.66623    0.00000

Gap: 0.127 eV
Transition (v -> c):
  (s=0, k=0, n=2, [0.00, 0.00, 0.00]) -> (s=0, k=0, n=3, [0.00, 0.00, 0.00])

Forces in eV/Ang:
  0 Na    0.03363    0.02940   -0.01500
  1 Na    0.00869   -0.07433   -0.05414
  2 Na   -0.05208    0.04861    0.06052
  3 Na    0.02052   -0.05267    0.06474
  4 Na   -0.05650    0.02871   -0.06015
  5 Na    0.04215    0.02014    0.00093

System changes: positions 

Initializing position-dependent things.

Density initialized from wave functions
           .--------------------------------------.  
          /|                                      |  
         / |                                      |  
        /  |                                      |  
       /   |                                      |  
      /    |                                      |  
     /     |                                      |  
    /      |                                      |  
   /       |                                      |  
  /        |                                      |  
 *         |                                      |  
 |         |                                      |  
 |         |           Na                         |  
 |         |             Na     Na                |  
 |         |                                      |  
 |         |                 Na                   |  
 |         |        Na                            |  
 |         |             Na                       |  
 |         |                                      |  
 |         |                                      |  
 |         .--------------------------------------.  
 |        /                                      /   
 |       /                                      /    
 |      /                                      /     
 |     /                                      /      
 |    /                                      /       
 |   /                                      /        
 |  /                                      /         
 | /                                      /          
 |/                                      /           
 *--------------------------------------*            

Positions:
   0 Na     8.762938   10.362634    6.836480    ( 0.0000,  0.0000,  0.0000)
   1 Na     6.804456    9.282151    9.604434    ( 0.0000,  0.0000,  0.0000)
   2 Na     8.071374    6.908213    7.299237    ( 0.0000,  0.0000,  0.0000)
   3 Na     8.043048    6.331537   10.607074    ( 0.0000,  0.0000,  0.0000)
   4 Na     5.537653    8.968241    6.513951    ( 0.0000,  0.0000,  0.0000)
   5 Na    10.311147    8.736433    9.362615    ( 0.0000,  0.0000,  0.0000)

Unit cell:
           periodic     x           y           z      points  spacing
  1. axis:    no    16.000000    0.000000    0.000000    64     0.2500
  2. axis:    no     0.000000   16.000000    0.000000    64     0.2500
  3. axis:    no     0.000000    0.000000   16.000000    64     0.2500

  Lengths:  16.000000  16.000000  16.000000
  Angles:   90.000000  90.000000  90.000000

Effective grid spacing dv^(1/3) = 0.2500

                     log10-error:    total        iterations:
           time      wfs    density  energy       fermi  poisson
iter:   1  14:30:43          +inf    -4.368835    2      1      
iter:   2  14:30:45         -2.01    -4.367166    2      1      
iter:   3  14:30:46         -2.51    -4.367254    2      1      
iter:   4  14:30:47         -2.68    -4.367091    2      1      
iter:   5  14:30:48         -3.19    -4.367106    2      1      
iter:   6  14:30:49         -3.42    -4.367122    2      1      
iter:   7  14:30:50         -4.14    -4.367128    1      1      

Converged after 7 iterations.

Dipole moment: (-0.178110, -0.126523, 0.028457) |e|*Ang

Energy contributions relative to reference atoms: (reference = -26392.251304)

Kinetic:        +19.861357
Potential:      -16.971404
External:        +0.000000
XC:              -7.236322
Entropy (-ST):   -0.101308
Local:           +0.029894
--------------------------
Free energy:     -4.417782
Extrapolated:    -4.367128

Fermi level: -2.68841

 Band  Eigenvalues  Occupancy
    0     -4.72332    2.00000
    1     -3.18801    1.99991
    2     -2.75640    1.59147
    3     -2.62043    0.40862
    4     -1.52971    0.00000
    5     -1.48299    0.00000
    6      0.98428    0.00000
    7      1.69302    0.00000
    8      2.44870    0.00000
    9      2.68705    0.00000

Gap: 0.136 eV
Transition (v -> c):
  (s=0, k=0, n=2, [0.00, 0.00, 0.00]) -> (s=0, k=0, n=3, [0.00, 0.00, 0.00])

Forces in eV/Ang:
  0 Na    0.02019   -0.00501    0.01333
  1 Na    0.02625   -0.09664   -0.07907
  2 Na   -0.06080    0.07661    0.08408
  3 Na    0.02551   -0.01758    0.03185
  4 Na   -0.01502    0.02572   -0.03413
  5 Na   -0.00023    0.01645   -0.01874

System changes: positions 

Initializing position-dependent things.

Density initialized from wave functions
           .--------------------------------------.  
          /|                                      |  
         / |                                      |  
        /  |                                      |  
       /   |                                      |  
      /    |                                      |  
     /     |                                      |  
    /      |                                      |  
   /       |                                      |  
  /        |                                      |  
 *         |                                      |  
 |         |                                      |  
 |         |           Na                         |  
 |         |             Na     Na                |  
 |         |                                      |  
 |         |                 Na                   |  
 |         |        Na   Na                       |  
 |         |                                      |  
 |         |                                      |  
 |         |                                      |  
 |         .--------------------------------------.  
 |        /                                      /   
 |       /                                      /    
 |      /                                      /     
 |     /                                      /      
 |    /                                      /       
 |   /                                      /        
 |  /                                      /         
 | /                                      /          
 |/                                      /           
 *--------------------------------------*            

Positions:
   0 Na     8.785485   10.373988    6.834753    ( 0.0000,  0.0000,  0.0000)
   1 Na     6.817574    9.214462    9.552096    ( 0.0000,  0.0000,  0.0000)
   2 Na     8.026333    6.957112    7.356247    ( 0.0000,  0.0000,  0.0000)
   3 Na     8.061195    6.301751   10.647355    ( 0.0000,  0.0000,  0.0000)
   4 Na     5.507036    8.990128    6.474995    ( 0.0000,  0.0000,  0.0000)
   5 Na    10.329995    8.751595    9.356060    ( 0.0000,  0.0000,  0.0000)

Unit cell:
           periodic     x           y           z      points  spacing
  1. axis:    no    16.000000    0.000000    0.000000    64     0.2500
  2. axis:    no     0.000000   16.000000    0.000000    64     0.2500
  3. axis:    no     0.000000    0.000000   16.000000    64     0.2500

  Lengths:  16.000000  16.000000  16.000000
  Angles:   90.000000  90.000000  90.000000

Effective grid spacing dv^(1/3) = 0.2500

                     log10-error:    total        iterations:
           time      wfs    density  energy       fermi  poisson
iter:   1  14:30:52          +inf    -4.412866    3      1      
iter:   2  14:30:53         -1.40    -4.402233    2      1      
iter:   3  14:30:54         -1.93    -4.400966    2      1      
iter:   4  14:30:56         -2.27    -4.400634    2      1      
iter:   5  14:30:57         -2.91    -4.400575    2      1      
iter:   6  14:30:58         -3.12    -4.400608    2      1      
iter:   7  14:30:59         -3.48    -4.400612    1      1      
iter:   8  14:31:00         -3.90    -4.400607    1      1      
iter:   9  14:31:01         -4.38    -4.400607    1      1      

Converged after 9 iterations.

Dipole moment: (-0.228006, -0.162111, 0.036096) |e|*Ang

Energy contributions relative to reference atoms: (reference = -26392.251304)

Kinetic:        +20.335119
Potential:      -17.362120
External:        +0.000000
XC:              -7.362449
Entropy (-ST):   -0.084687
Local:           +0.031186
--------------------------
Free energy:     -4.442951
Extrapolated:    -4.400607

Fermi level: -2.66342

 Band  Eigenvalues  Occupancy
    0     -4.73542    2.00000
    1     -3.19857    1.99996
    2     -2.75002    1.69934
    3     -2.57683    0.30071
    4     -1.56432    0.00000
    5     -1.48245    0.00000
    6      0.96814    0.00000
    7      1.68743    0.00000
    8      2.42541    0.00000
    9      2.75360    0.00000

Gap: 0.173 eV
Transition (v -> c):
  (s=0, k=0, n=2, [0.00, 0.00, 0.00]) -> (s=0, k=0, n=3, [0.00, 0.00, 0.00])

Forces in eV/Ang:
  0 Na    0.03502   -0.00460    0.02052
  1 Na    0.00344   -0.07992   -0.05554
  2 Na   -0.05619    0.04735    0.06454
  3 Na    0.02128   -0.01219    0.02559
  4 Na   -0.01100    0.02203   -0.02603
  5 Na    0.00378    0.02815   -0.03003

System changes: positions 

Initializing position-dependent things.

Density initialized from wave functions
           .--------------------------------------.  
          /|                                      |  
         / |                                      |  
        /  |                                      |  
       /   |                                      |  
      /    |                                      |  
     /     |                                      |  
    /      |                                      |  
   /       |                                      |  
  /        |                                      |  
 *         |                                      |  
 |         |                                      |  
 |         |           Na                         |  
 |         |             Na     Na                |  
 |         |                                      |  
 |         |                 Na                   |  
 |         |        Na   Na                       |  
 |         |                                      |  
 |         |                                      |  
 |         |                                      |  
 |         .--------------------------------------.  
 |        /                                      /   
 |       /                                      /    
 |      /                                      /     
 |     /                                      /      
 |    /                                      /       
 |   /                                      /        
 |  /                                      /         
 | /                                      /          
 |/                                      /           
 *--------------------------------------*            

Positions:
   0 Na     8.804285   10.376913    6.839953    ( 0.0000,  0.0000,  0.0000)
   1 Na     6.826831    9.158981    9.509874    ( 0.0000,  0.0000,  0.0000)
   2 Na     7.989323    6.996046    7.402801    ( 0.0000,  0.0000,  0.0000)
   3 Na     8.076128    6.284837   10.673067    ( 0.0000,  0.0000,  0.0000)
   4 Na     5.490299    9.006827    6.449460    ( 0.0000,  0.0000,  0.0000)
   5 Na    10.338273    8.765502    9.344891    ( 0.0000,  0.0000,  0.0000)

Unit cell:
           periodic     x           y           z      points  spacing
  1. axis:    no    16.000000    0.000000    0.000000    64     0.2500
  2. axis:    no     0.000000   16.000000    0.000000    64     0.2500
  3. axis:    no     0.000000    0.000000   16.000000    64     0.2500

  Lengths:  16.000000  16.000000  16.000000
  Angles:   90.000000  90.000000  90.000000

Effective grid spacing dv^(1/3) = 0.2500

                     log10-error:    total        iterations:
           time      wfs    density  energy       fermi  poisson
iter:   1  14:31:03          +inf    -4.430282    2      1      
iter:   2  14:31:04         -1.57    -4.424386    2      1      
iter:   3  14:31:05         -1.98    -4.422851    2      1      
iter:   4  14:31:07         -2.40    -4.422690    2      1      
iter:   5  14:31:08         -2.98    -4.422629    2      1      
iter:   6  14:31:09         -3.18    -4.422642    2      1      
iter:   7  14:31:10         -3.58    -4.422663    1      1      
iter:   8  14:31:11         -4.11    -4.422662    1      1      

Converged after 8 iterations.

Dipole moment: (-0.266327, -0.189590, 0.041841) |e|*Ang

Energy contributions relative to reference atoms: (reference = -26392.251304)

Kinetic:        +21.123451
Potential:      -18.001017
External:        +0.000000
XC:              -7.542734
Entropy (-ST):   -0.069558
Local:           +0.032416
--------------------------
Free energy:     -4.457441
Extrapolated:    -4.422662

Fermi level: -2.64323

 Band  Eigenvalues  Occupancy
    0     -4.74976    2.00000
    1     -3.20649    1.99997
    2     -2.74747    1.77887
    3     -2.53898    0.22116
    4     -1.58741    0.00000
    5     -1.47518    0.00000
    6      0.96291    0.00000
    7      1.66780    0.00000
    8      2.38885    0.00000
    9      2.81253    0.00000

Gap: 0.208 eV
Transition (v -> c):
  (s=0, k=0, n=2, [0.00, 0.00, 0.00]) -> (s=0, k=0, n=3, [0.00, 0.00, 0.00])

Forces in eV/Ang:
[...]
 |         |         Na                           |  
 |         |            Na                        |  
 |         |                                      |  
 |         |             Na     Na                |  
 |         |                                      |  
 |         |                                      |  
 |         .--------------------------------------.  
 |        /                                      /   
 |       /                                      /    
 |      /                                      /     
 |     /                                      /      
 |    /                                      /       
 |   /                                      /        
 |  /                                      /         
 | /                                      /          
 |/                                      /           
 *--------------------------------------*            

Positions:
   0 Na     7.210543    9.219984    7.072053    ( 0.0000,  0.0000,  0.0000)
   1 Na     6.264449    6.886652    9.536668    ( 0.0000,  0.0000,  0.0000)
   2 Na    10.345509    8.709083    6.021186    ( 0.0000,  0.0000,  0.0000)
   3 Na     6.801142   10.445747   10.154142    ( 0.0000,  0.0000,  0.0000)
   4 Na     9.374173    8.525456    9.214574    ( 0.0000,  0.0000,  0.0000)
   5 Na     8.329087    5.876553    7.134654    ( 0.0000,  0.0000,  0.0000)

Unit cell:
           periodic     x           y           z      points  spacing
  1. axis:    no    16.000000    0.000000    0.000000    64     0.2500
  2. axis:    no     0.000000   16.000000    0.000000    64     0.2500
  3. axis:    no     0.000000    0.000000   16.000000    64     0.2500

  Lengths:  16.000000  16.000000  16.000000
  Angles:   90.000000  90.000000  90.000000

Effective grid spacing dv^(1/3) = 0.2500

                     log10-error:    total        iterations:
           time      wfs    density  energy       fermi  poisson
iter:   1  14:35:53          +inf    -4.441331    2      1      
iter:   2  14:35:55         -1.71    -4.438258    2      1      
iter:   3  14:35:56         -1.99    -4.436676    2      1      
iter:   4  14:35:57         -2.50    -4.436635    2      1      
iter:   5  14:35:58         -3.00    -4.436609    2      1      
iter:   6  14:35:59         -3.18    -4.436620    2      1      
iter:   7  14:36:00         -3.76    -4.436641    2      1      
iter:   8  14:36:02         -4.18    -4.436643    1      1      

Converged after 8 iterations.

Dipole moment: (0.134240, 0.336507, -0.025761) |e|*Ang

Energy contributions relative to reference atoms: (reference = -26392.251304)

Kinetic:        +21.718765
Potential:      -18.489608
External:        +0.000000
XC:              -7.671745
Entropy (-ST):   -0.054879
Local:           +0.033385
--------------------------
Free energy:     -4.464082
Extrapolated:    -4.436643

Fermi level: -2.62491

 Band  Eigenvalues  Occupancy
    0     -4.75471    2.00000
    1     -3.20550    1.99998
    2     -2.74827    1.84362
    3     -2.50155    0.15640
    4     -1.60496    0.00000
    5     -1.46982    0.00000
    6      0.98173    0.00000
    7      1.66879    0.00000
    8      2.35462    0.00000
    9      2.87031    0.00000

Gap: 0.247 eV
Transition (v -> c):
  (s=0, k=0, n=2, [0.00, 0.00, 0.00]) -> (s=0, k=0, n=3, [0.00, 0.00, 0.00])

Forces in eV/Ang:
  0 Na    0.00333    0.04577   -0.01858
  1 Na    0.00297   -0.04450   -0.01806
  2 Na    0.01584   -0.01447   -0.02106
  3 Na   -0.02172    0.00384    0.02314
  4 Na    0.03078    0.03714    0.01155
  5 Na   -0.03395   -0.02737    0.02305

System changes: positions 

Initializing position-dependent things.

Density initialized from wave functions
           .--------------------------------------.  
          /|                                      |  
         / |                                      |  
        /  |                                      |  
       /   |                                      |  
      /    |                                      |  
     /     |                                      |  
    /      |                                      |  
   /       |                                      |  
  /        |                                      |  
 *         |                                      |  
 |         |            Na                        |  
 |         |                                      |  
 |         |                 Na                   |  
 |         |         Na                           |  
 |         |            Na                        |  
 |         |                                      |  
 |         |             Na     Na                |  
 |         |                                      |  
 |         |                                      |  
 |         .--------------------------------------.  
 |        /                                      /   
 |       /                                      /    
 |      /                                      /     
 |     /                                      /      
 |    /                                      /       
 |   /                                      /        
 |  /                                      /         
 | /                                      /          
 |/                                      /           
 *--------------------------------------*            

Positions:
   0 Na     7.238369    9.243387    7.085431    ( 0.0000,  0.0000,  0.0000)
   1 Na     6.262548    6.852575    9.527332    ( 0.0000,  0.0000,  0.0000)
   2 Na    10.368683    8.698804    5.994279    ( 0.0000,  0.0000,  0.0000)
   3 Na     6.777704   10.458558   10.181164    ( 0.0000,  0.0000,  0.0000)
   4 Na     9.369621    8.559591    9.196515    ( 0.0000,  0.0000,  0.0000)
   5 Na     8.306442    5.852303    7.147744    ( 0.0000,  0.0000,  0.0000)

Unit cell:
           periodic     x           y           z      points  spacing
  1. axis:    no    16.000000    0.000000    0.000000    64     0.2500
  2. axis:    no     0.000000   16.000000    0.000000    64     0.2500
  3. axis:    no     0.000000    0.000000   16.000000    64     0.2500

  Lengths:  16.000000  16.000000  16.000000
  Angles:   90.000000  90.000000  90.000000

Effective grid spacing dv^(1/3) = 0.2500

                     log10-error:    total        iterations:
           time      wfs    density  energy       fermi  poisson
iter:   1  14:36:03          +inf    -4.447260    2      1      
iter:   2  14:36:04         -2.13    -4.447363    2      1      
iter:   3  14:36:06         -2.34    -4.447207    2      1      
iter:   4  14:36:07         -2.77    -4.447020    2      1      
iter:   5  14:36:08         -3.27    -4.447029    1      1      
iter:   6  14:36:09         -3.47    -4.447058    2      1      
iter:   7  14:36:10         -4.16    -4.447059    1      1      

Converged after 7 iterations.

Dipole moment: (0.146405, 0.366671, -0.028077) |e|*Ang

Energy contributions relative to reference atoms: (reference = -26392.251304)

Kinetic:        +21.523283
Potential:      -18.355029
External:        +0.000000
XC:              -7.625663
Entropy (-ST):   -0.045532
Local:           +0.033115
--------------------------
Free energy:     -4.469826
Extrapolated:    -4.447059

Fermi level: -2.61615

 Band  Eigenvalues  Occupancy
    0     -4.74218    2.00000
    1     -3.19862    1.99998
    2     -2.75353    1.87954
    3     -2.47879    0.12047
    4     -1.62367    0.00000
    5     -1.46753    0.00000
    6      1.02418    0.00000
    7      1.71615    0.00000
    8      2.33902    0.00000
    9      2.90440    0.00000

Gap: 0.275 eV
Transition (v -> c):
  (s=0, k=0, n=2, [0.00, 0.00, 0.00]) -> (s=0, k=0, n=3, [0.00, 0.00, 0.00])

Forces in eV/Ang:
  0 Na   -0.00912    0.04319   -0.02666
  1 Na    0.00581   -0.02733   -0.01573
  2 Na    0.00148   -0.01963   -0.00731
  3 Na   -0.01412   -0.01260    0.01103
  4 Na    0.03768    0.02874    0.02181
  5 Na   -0.02398   -0.01369    0.01848

System changes: positions 

Initializing position-dependent things.

Density initialized from wave functions
           .--------------------------------------.  
          /|                                      |  
         / |                                      |  
        /  |                                      |  
       /   |                                      |  
      /    |                                      |  
     /     |                                      |  
    /      |                                      |  
   /       |                                      |  
  /        |                                      |  
 *         |                                      |  
 |         |            Na                        |  
 |         |                                      |  
 |         |                 Na                   |  
 |         |         Na                           |  
 |         |            Na                        |  
 |         |                                      |  
 |         |             Na     Na                |  
 |         |                                      |  
 |         |                                      |  
 |         .--------------------------------------.  
 |        /                                      /   
 |       /                                      /    
 |      /                                      /     
 |     /                                      /      
 |    /                                      /       
 |   /                                      /        
 |  /                                      /         
 | /                                      /          
 |/                                      /           
 *--------------------------------------*            

Positions:
   0 Na     7.251890    9.280137    7.080700    ( 0.0000,  0.0000,  0.0000)
   1 Na     6.261894    6.814656    9.515133    ( 0.0000,  0.0000,  0.0000)
   2 Na    10.387445    8.684252    5.970678    ( 0.0000,  0.0000,  0.0000)
   3 Na     6.754614   10.464427   10.206234    ( 0.0000,  0.0000,  0.0000)
   4 Na     9.385491    8.596035    9.195623    ( 0.0000,  0.0000,  0.0000)
   5 Na     8.279948    5.826367    7.164190    ( 0.0000,  0.0000,  0.0000)

Unit cell:
           periodic     x           y           z      points  spacing
  1. axis:    no    16.000000    0.000000    0.000000    64     0.2500
  2. axis:    no     0.000000   16.000000    0.000000    64     0.2500
  3. axis:    no     0.000000    0.000000   16.000000    64     0.2500

  Lengths:  16.000000  16.000000  16.000000
  Angles:   90.000000  90.000000  90.000000

Effective grid spacing dv^(1/3) = 0.2500

                     log10-error:    total        iterations:
           time      wfs    density  energy       fermi  poisson
iter:   1  14:36:12          +inf    -4.452370    2      1      
iter:   2  14:36:13         -1.97    -4.453553    2      1      
iter:   3  14:36:14         -2.47    -4.453933    1      1      
iter:   4  14:36:15         -2.69    -4.453871    2      1      
iter:   5  14:36:17         -3.44    -4.453855    2      1      
iter:   6  14:36:18         -3.64    -4.453856    2      1      
iter:   7  14:36:19         -4.02    -4.453865    2      1      

Converged after 7 iterations.

Dipole moment: (0.157146, 0.393551, -0.030326) |e|*Ang

Energy contributions relative to reference atoms: (reference = -26392.251304)

Kinetic:        +20.900552
Potential:      -17.880873
External:        +0.000000
XC:              -7.485159
Entropy (-ST):   -0.041036
Local:           +0.032134
--------------------------
Free energy:     -4.474383
Extrapolated:    -4.453865

Fermi level: -2.61588

 Band  Eigenvalues  Occupancy
    0     -4.72019    2.00000
    1     -3.18688    1.99998
    2     -2.76078    1.89549
    3     -2.47100    0.10453
    4     -1.63770    0.00000
    5     -1.46282    0.00000
    6      1.07639    0.00000
    7      1.79176    0.00000
    8      2.33551    0.00000
    9      2.91437    0.00000

Gap: 0.290 eV
Transition (v -> c):
  (s=0, k=0, n=2, [0.00, 0.00, 0.00]) -> (s=0, k=0, n=3, [0.00, 0.00, 0.00])

Forces in eV/Ang:
  0 Na    0.00420    0.02685   -0.00785
  1 Na    0.00694   -0.00184   -0.00835
  2 Na   -0.01563   -0.02552    0.00919
  3 Na   -0.00549   -0.03192   -0.00350
  4 Na    0.01659    0.02602    0.00486
  5 Na   -0.00720    0.00460    0.00786

System changes: positions 

Initializing position-dependent things.

Density initialized from wave functions
           .--------------------------------------.  
          /|                                      |  
         / |                                      |  
        /  |                                      |  
       /   |                                      |  
      /    |                                      |  
     /     |                                      |  
    /      |                                      |  
   /       |                                      |  
  /        |                                      |  
 *         |                                      |  
 |         |            Na                        |  
 |         |                                      |  
 |         |                 Na                   |  
 |         |         Na                           |  
 |         |             Na                       |  
 |         |                                      |  
 |         |             Na     Na                |  
 |         |                                      |  
 |         |                                      |  
 |         .--------------------------------------.  
 |        /                                      /   
 |       /                                      /    
 |      /                                      /     
 |     /                                      /      
 |    /                                      /       
 |   /                                      /        
 |  /                                      /         
 | /                                      /          
 |/                                      /           
 *--------------------------------------*            

Positions:
   0 Na     7.259966    9.307642    7.075542    ( 0.0000,  0.0000,  0.0000)
   1 Na     6.264712    6.795581    9.505539    ( 0.0000,  0.0000,  0.0000)
   2 Na    10.390491    8.667944    5.962899    ( 0.0000,  0.0000,  0.0000)
   3 Na     6.741666   10.455423   10.216806    ( 0.0000,  0.0000,  0.0000)
   4 Na     9.399104    8.623033    9.196935    ( 0.0000,  0.0000,  0.0000)
   5 Na     8.264080    5.815957    7.175625    ( 0.0000,  0.0000,  0.0000)

Unit cell:
           periodic     x           y           z      points  spacing
  1. axis:    no    16.000000    0.000000    0.000000    64     0.2500
  2. axis:    no     0.000000   16.000000    0.000000    64     0.2500
  3. axis:    no     0.000000    0.000000   16.000000    64     0.2500

  Lengths:  16.000000  16.000000  16.000000
  Angles:   90.000000  90.000000  90.000000

Effective grid spacing dv^(1/3) = 0.2500

                     log10-error:    total        iterations:
           time      wfs    density  energy       fermi  poisson
iter:   1  14:36:21          +inf    -4.455358    2      1      
iter:   2  14:36:22         -2.18    -4.456234    2      1      
iter:   3  14:36:23         -2.72    -4.456519    2      1      
iter:   4  14:36:24         -2.92    -4.456498    2      1      
iter:   5  14:36:25         -3.74    -4.456487    2      1      
iter:   6  14:36:27         -3.92    -4.456484    2      1      
iter:   7  14:36:28         -4.31    -4.456488    1      1      

Converged after 7 iterations.

Dipole moment: (0.164724, 0.413640, -0.032308) |e|*Ang

Energy contributions relative to reference atoms: (reference = -26392.251304)

Kinetic:        +20.700947
Potential:      -17.732470
External:        +0.000000
XC:              -7.436812
Entropy (-ST):   -0.039823
Local:           +0.031758
--------------------------
Free energy:     -4.476400
Extrapolated:    -4.456488

Fermi level: -2.61630

 Band  Eigenvalues  Occupancy
    0     -4.70931    2.00000
    1     -3.18266    1.99998
    2     -2.76334    1.89966
    3     -2.46927    0.10037
    4     -1.64230    0.00000
    5     -1.45342    0.00000
    6      1.10202    0.00000
    7      1.82267    0.00000
    8      2.33224    0.00000
    9      2.91588    0.00000

Gap: 0.294 eV
Transition (v -> c):
  (s=0, k=0, n=2, [0.00, 0.00, 0.00]) -> (s=0, k=0, n=3, [0.00, 0.00, 0.00])

Forces in eV/Ang:
  0 Na    0.01147    0.01614    0.00312
  1 Na    0.00236    0.01215    0.00022
  2 Na   -0.01920   -0.02754    0.01257
  3 Na   -0.00402   -0.03641   -0.00602
  4 Na    0.00481    0.02409   -0.00477
  5 Na    0.00490    0.01038   -0.00263

System changes: positions 

Initializing position-dependent things.

Density initialized from wave functions
           .--------------------------------------.  
          /|                                      |  
         / |                                      |  
        /  |                                      |  
       /   |                                      |  
      /    |                                      |  
     /     |                                      |  
    /      |                                      |  
   /       |                                      |  
  /        |                                      |  
 *         |                                      |  
 |         |            Na                        |  
 |         |                                      |  
 |         |                 Na                   |  
 |         |         Na                           |  
 |         |             Na                       |  
 |         |                                      |  
 |         |             Na     Na                |  
 |         |                                      |  
 |         |                                      |  
 |         .--------------------------------------.  
 |        /                                      /   
 |       /                                      /    
 |      /                                      /     
 |     /                                      /      
 |    /                                      /       
 |   /                                      /        
 |  /                                      /         
 | /                                      /          
 |/                                      /           
 *--------------------------------------*            

Positions:
   0 Na     7.281895    9.367101    7.068686    ( 0.0000,  0.0000,  0.0000)
   1 Na     6.274795    6.777809    9.487384    ( 0.0000,  0.0000,  0.0000)
   2 Na    10.373906    8.615125    5.965342    ( 0.0000,  0.0000,  0.0000)
   3 Na     6.719004   10.403407   10.225237    ( 0.0000,  0.0000,  0.0000)
   4 Na     9.426451    8.687736    9.196145    ( 0.0000,  0.0000,  0.0000)
   5 Na     8.242108    5.812678    7.194118    ( 0.0000,  0.0000,  0.0000)

Unit cell:
           periodic     x           y           z      points  spacing
  1. axis:    no    16.000000    0.000000    0.000000    64     0.2500
  2. axis:    no     0.000000   16.000000    0.000000    64     0.2500
  3. axis:    no     0.000000    0.000000   16.000000    64     0.2500

  Lengths:  16.000000  16.000000  16.000000
  Angles:   90.000000  90.000000  90.000000

Effective grid spacing dv^(1/3) = 0.2500

                     log10-error:    total        iterations:
           time      wfs    density  energy       fermi  poisson
iter:   1  14:36:29          +inf    -4.459472    2      1      
iter:   2  14:36:31         -2.04    -4.460479    2      1      
iter:   3  14:36:32         -2.37    -4.460829    2      1      
iter:   4  14:36:33         -2.64    -4.460742    2      1      
iter:   5  14:36:34         -3.38    -4.460716    2      1      
iter:   6  14:36:35         -3.57    -4.460709    2      1      
