potential:
potential:
potential:
potential:
potential:
potential:
potential:
potential:
potential:
potential:
potential:
potential:
potential:
potential:
potential:
potential:
potential:

  ___ ___ ___ _ _ _  
 |   |   |_  | | | | 
 | | | | | . | | | | 
 |__ |  _|___|_____|  20.10.0
 |___|_|             

User:   esve@hebbe05-6
Date:   Thu Mar 11 20:09:18 2021
Arch:   x86_64
Pid:    10158
Python: 3.7.4
potential:
potential:
gpaw:   /apps/Hebbe7/software/MPI/GCC/8.3.0/OpenMPI/3.1.4/GPAW/20.10.0-ASE-3.20.1-Python-3.7.4/lib/python3.7/site-packages/gpaw
_gpaw:  /apps/Hebbe7/software/MPI/GCC/8.3.0/OpenMPI/3.1.4/GPAW/20.10.0-ASE-3.20.1-Python-3.7.4/lib/python3.7/site-packages/
        _gpaw.cpython-37m-x86_64-linux-gnu.so
ase:    /apps/Hebbe7/software/MPI/GCC/8.3.0/OpenMPI/3.1.4/ASE/3.20.1-Python-3.7.4/lib/python3.7/site-packages/ase (version 3.20.1)
numpy:  /apps/Hebbe7/software/MPI/GCC/8.3.0/OpenMPI/3.1.4/SciPy-bundle/2019.10-Python-3.7.4/lib/python3.7/site-packages/numpy (version 1.17.3)
scipy:  /apps/Hebbe7/software/MPI/GCC/8.3.0/OpenMPI/3.1.4/SciPy-bundle/2019.10-Python-3.7.4/lib/python3.7/site-packages/scipy (version 1.3.1)
libxc:  4.3.4
units:  Angstrom and eV
cores: 20
OMP_NUM_THREADS: 1

Input parameters:
  kpts: [8 8 8]
  mode: {ecut: 300.0,
         gammacentered: False,
         name: pw}
  occupations: {fixmagmom: False,
                name: fermi-dirac,
                width: 0.01}
  random: True
  xc: PBE

potential:
System changes: positions, numbers, cell, pbc, initial_charges, initial_magmoms 

Initialize ...

Al-setup:
  name: Aluminium
  id: 0292cae29f5d6237e50f6abdd43a7bdd
  Z: 13.0
  valence: 3
  core: 10
  charge: 0.0
  file: /apps/Hebbe7/software/Core/GPAW-setups/0.9.20000/Al.PBE.gz
  compensation charges: gauss, rc=0.34, lmax=2
  cutoffs: 1.91(filt), 2.36(core),
  valence states:
                energy  radius
    3s(2.00)    -7.753   1.085
    3p(1.00)    -2.712   1.085
    *s          19.459   1.085
    *p          24.499   1.085
    *d           0.000   1.085

  Using partial waves for Al as LCAO basis

Reference energy: -6603.423265

Spin-paired calculation

Convergence criteria:
  Maximum total energy change: 0.0005 eV / electron
  Maximum integral of absolute density change: 0.0001 electrons
  Maximum integral of absolute eigenstate change: 4e-08 eV^2
  Maximum number of iterations: 333

Symmetries present (total): 48

  ( 1  0  0)  ( 1  0  0)  ( 1  0  0)  ( 1  0  0)  ( 1  0 -1)  ( 1  0 -1)
  ( 1  0 -1)  ( 1 -1  0)  ( 0  1  0)  ( 0  0  1)  ( 1  0  0)  ( 1 -1  0)
  ( 1 -1  0)  ( 1  0 -1)  ( 0  0  1)  ( 0  1  0)  ( 1 -1  0)  ( 1  0  0)

  ( 1  0 -1)  ( 1  0 -1)  ( 1 -1  0)  ( 1 -1  0)  ( 1 -1  0)  ( 1 -1  0)
  ( 0  1 -1)  ( 0  0 -1)  ( 1  0  0)  ( 1  0 -1)  ( 0 -1  1)  ( 0 -1  0)
  ( 0  0 -1)  ( 0  1 -1)  ( 1  0 -1)  ( 1  0  0)  ( 0 -1  0)  ( 0 -1  1)

  ( 0  1  0)  ( 0  1  0)  ( 0  1  0)  ( 0  1  0)  ( 0  1 -1)  ( 0  1 -1)
  ( 1  0  0)  ( 0  1 -1)  ( 0  0  1)  (-1  1  0)  ( 1  0 -1)  ( 0  1  0)
  ( 0  0  1)  (-1  1  0)  ( 1  0  0)  ( 0  1 -1)  ( 0  0 -1)  (-1  1  0)

  ( 0  1 -1)  ( 0  1 -1)  ( 0  0  1)  ( 0  0  1)  ( 0  0  1)  ( 0  0  1)
  ( 0  0 -1)  (-1  1  0)  ( 1  0  0)  ( 0  1  0)  ( 0 -1  1)  (-1  0  1)
  ( 1  0 -1)  ( 0  1  0)  ( 0  1  0)  ( 1  0  0)  (-1  0  1)  ( 0 -1  1)

  ( 0  0 -1)  ( 0  0 -1)  ( 0  0 -1)  ( 0  0 -1)  ( 0 -1  1)  ( 0 -1  1)
  ( 1  0 -1)  ( 0  1 -1)  ( 0 -1  0)  (-1  0  0)  ( 1 -1  0)  ( 0  0  1)
  ( 0  1 -1)  ( 1  0 -1)  (-1  0  0)  ( 0 -1  0)  ( 0 -1  0)  (-1  0  1)

  ( 0 -1  1)  ( 0 -1  1)  ( 0 -1  0)  ( 0 -1  0)  ( 0 -1  0)  ( 0 -1  0)
  ( 0 -1  0)  (-1  0  1)  ( 1 -1  0)  ( 0  0 -1)  ( 0 -1  1)  (-1  0  0)
  ( 1 -1  0)  ( 0  0  1)  ( 0 -1  1)  (-1  0  0)  ( 1 -1  0)  ( 0  0 -1)

  (-1  1  0)  (-1  1  0)  (-1  1  0)  (-1  1  0)  (-1  0  1)  (-1  0  1)
  ( 0  1  0)  ( 0  1 -1)  (-1  0  1)  (-1  0  0)  ( 0  0  1)  ( 0 -1  1)
  ( 0  1 -1)  ( 0  1  0)  (-1  0  0)  (-1  0  1)  ( 0 -1  1)  ( 0  0  1)

  (-1  0  1)  (-1  0  1)  (-1  0  0)  (-1  0  0)  (-1  0  0)  (-1  0  0)
  (-1  1  0)  (-1  0  0)  ( 0  0 -1)  ( 0 -1  0)  (-1  1  0)  (-1  0  1)
  (-1  0  0)  (-1  1  0)  ( 0 -1  0)  ( 0  0 -1)  (-1  0  1)  (-1  1  0)
Note: your k-points are not as symmetric as your crystal!

512 k-points: 8 x 8 x 8 Monkhorst-Pack grid
60 k-points in the irreducible part of the Brillouin zone
       k-points in crystal coordinates                weights
   0:     0.06250000    0.06250000   -0.06250000          6/512
   1:     0.06250000    0.06250000    0.06250000          2/512
   2:     0.18750000   -0.06250000   -0.06250000          6/512
   3:     0.18750000    0.06250000   -0.18750000         12/512
   4:     0.18750000    0.06250000   -0.06250000         12/512
   5:     0.18750000    0.06250000    0.06250000          6/512
   6:     0.18750000    0.18750000   -0.18750000          6/512
   7:     0.18750000    0.18750000   -0.06250000          6/512
   8:     0.18750000    0.18750000    0.06250000          6/512
   9:     0.18750000    0.18750000    0.18750000          2/512
          ...
  59:     0.43750000    0.43750000    0.43750000          2/512

Wave functions: Plane wave expansion
  Cutoff energy: 300.000 eV
  Number of coefficients (min, max): 178, 202
  Pulay-stress correction: 0.000000 eV/Ang^3 (de/decut=0.000000)
  Using FFTW library
  ScaLapack parameters: grid=1x1, blocksize=None
  Wavefunction extrapolation:
    Improved wavefunction reuse through dual PAW basis 

  Fermi-Dirac: width=0.0100 eV

Eigensolver
   Davidson(niter=2, smin=None, normalize=True) 

Densities:
  Coarse grid: 12*12*12 grid
  Fine grid: 24*24*24 grid
  Total Charge: 0.000000 

Density mixing:
  Method: separate
  Backend: pulay
  Linear mixing parameter: 0.05
  Mixing with 5 old densities
  Damping of long wave oscillations: 50 

Hamiltonian:
  XC and Coulomb potentials evaluated on a 24*24*24 grid
  Using the PBE Exchange-Correlation functional
 

XC parameters: PBE with 2 nearest neighbor stencil

Memory estimate:
  Process memory now: 149.78 MiB
  Calculator: 1.12 MiB
    Density: 0.68 MiB
      Arrays: 0.34 MiB
      Localized functions: 0.21 MiB
      Mixer: 0.13 MiB
    Hamiltonian: 0.23 MiB
      Arrays: 0.22 MiB
      XC: 0.00 MiB
      Poisson: 0.00 MiB
      vbar: 0.00 MiB
    Wavefunctions: 0.20 MiB
      Arrays psit_nG: 0.04 MiB
      Eigensolver: 0.03 MiB
      Projections: 0.00 MiB
      Projectors: 0.06 MiB
      PW-descriptor: 0.08 MiB

Total number of cores used: 20
Parallelization over k-points: 20

Number of atoms: 1
Number of atomic orbitals: 4
Number of bands in calculation: 4
Number of valence electrons: 3
Bands to converge: occupied

... initialized

Initializing position-dependent things.

Density initialized from atomic densities
Creating initial wave functions:
  4 bands from LCAO basis set

                
                
                
       Al       
                
                
                
                

Positions:
   0 Al     0.000000    0.000000    0.000000    ( 0.0000,  0.0000,  0.0000)

Unit cell:
           periodic     x           y           z      points  spacing
  1. axis:    yes    0.000000    2.025000    2.025000    12     0.1949
  2. axis:    yes    2.025000    0.000000    2.025000    12     0.1949
  3. axis:    yes    2.025000    2.025000    0.000000    12     0.1949

  Lengths:   2.863782   2.863782   2.863782
  Angles:   60.000000  60.000000  60.000000

Effective grid spacing dv^(1/3) = 0.2126

                     log10-error:    total        iterations:
           time      wfs    density  energy       poisson
iter:   1  20:09:25                  -3.739178           
iter:   2  20:09:28  -2.67  -0.93    -3.740393           
iter:   3  20:09:32  -2.63  -0.95    -3.741534           
iter:   4  20:09:35  -3.83  -1.23    -3.739870           
iter:   5  20:09:38  -5.46  -2.10    -3.739872           
iter:   6  20:09:41  -4.62  -2.18    -3.740049           
iter:   7  20:09:45  -6.95  -2.85    -3.740045           
iter:   8  20:09:48  -7.86  -3.80    -3.740045           
iter:   9  20:09:51  -8.26  -3.63    -3.740045           
iter:  10  20:09:54 -10.48  -4.88    -3.740045           

Converged after 10 iterations.

Dipole moment: (0.000000, 0.000000, 0.000000) |e|*Ang

Energy contributions relative to reference atoms: (reference = -6603.423265)

Kinetic:         +3.389219
Potential:       -1.544331
External:        +0.000000
XC:              -5.577956
Entropy (-ST):   -0.000211
Local:           -0.006871
--------------------------
Free energy:     -3.740150
Extrapolated:    -3.740045

Showing only first 2 kpts
 Kpt  Band  Eigenvalues  Occupancy
  0     0     -3.60866    0.02344
  0     1     16.26019    0.00000
  0     2     17.76828    0.00000

  1     0     -3.89034    0.00781
  1     1     17.89806    0.00000
  1     2     19.31044    0.00000


Fermi level: 7.08617

No gap
fermi level
fermi level
fermi level
fermi level
fermi level
fermi level
fermi level
fermi level
fermi level
fermi level
fermi level
fermi level
fermi level
fermi level
fermi level
fermi level
fermi level
fermi level
fermi level
Writing to bulk.gpw (mode='')

fermi level

  ___ ___ ___ _ _ _  
 |   |   |_  | | | | 
 | | | | | . | | | | 
 |__ |  _|___|_____|  20.10.0
 |___|_|             

User:   esve@hebbe05-6
Date:   Thu Mar 11 20:09:54 2021
Arch:   x86_64
Pid:    10158
Python: 3.7.4
gpaw:   /apps/Hebbe7/software/MPI/GCC/8.3.0/OpenMPI/3.1.4/GPAW/20.10.0-ASE-3.20.1-Python-3.7.4/lib/python3.7/site-packages/gpaw
_gpaw:  /apps/Hebbe7/software/MPI/GCC/8.3.0/OpenMPI/3.1.4/GPAW/20.10.0-ASE-3.20.1-Python-3.7.4/lib/python3.7/site-packages/
        _gpaw.cpython-37m-x86_64-linux-gnu.so
ase:    /apps/Hebbe7/software/MPI/GCC/8.3.0/OpenMPI/3.1.4/ASE/3.20.1-Python-3.7.4/lib/python3.7/site-packages/ase (version 3.20.1)
numpy:  /apps/Hebbe7/software/MPI/GCC/8.3.0/OpenMPI/3.1.4/SciPy-bundle/2019.10-Python-3.7.4/lib/python3.7/site-packages/numpy (version 1.17.3)
scipy:  /apps/Hebbe7/software/MPI/GCC/8.3.0/OpenMPI/3.1.4/SciPy-bundle/2019.10-Python-3.7.4/lib/python3.7/site-packages/scipy (version 1.3.1)
libxc:  4.3.4
units:  Angstrom and eV
cores: 20
OMP_NUM_THREADS: 1

Input parameters:
  convergence: {bands: 8}
  kpts: {npoints: 60,
         path: GXULGK}
  mode: {ecut: 300.0,
         gammacentered: False,
         name: pw}
  nbands: 16
  occupations: {name: fermi-dirac,
                width: 0.01}
  random: True
  symmetry: off
  xc: PBE

Initialize ...

Al-setup:
  name: Aluminium
  id: 0292cae29f5d6237e50f6abdd43a7bdd
  Z: 13.0
  valence: 3
  core: 10
  charge: 0.0
  file: /apps/Hebbe7/software/Core/GPAW-setups/0.9.20000/Al.PBE.gz
  compensation charges: gauss, rc=0.34, lmax=2
  cutoffs: 1.91(filt), 2.36(core),
  valence states:
                energy  radius
    3s(2.00)    -7.753   1.085
    3p(1.00)    -2.712   1.085
    *s          19.459   1.085
    *p          24.499   1.085
    *d           0.000   1.085

  Using partial waves for Al as LCAO basis

Reference energy: -6603.423265

Spin-paired calculation

Convergence criteria:
  Maximum total energy change: 0.0005 eV / electron
  Maximum integral of absolute density change: 0.0001 electrons
  Maximum integral of absolute eigenstate change: 4e-08 eV^2
  Maximum number of iterations: 333

Symmetries present (total): 1

  ( 1  0  0)
  ( 0  1  0)
  ( 0  0  1)

60 k-points
60 k-points in the irreducible part of the Brillouin zone
       k-points in crystal coordinates                weights
   0:     0.00000000    0.00000000    0.00000000       0.01666667
   1:     0.03571429    0.00000000    0.03571429       0.01666667
   2:     0.07142857    0.00000000    0.07142857       0.01666667
   3:     0.10714286    0.00000000    0.10714286       0.01666667
   4:     0.14285714    0.00000000    0.14285714       0.01666667
   5:     0.17857143    0.00000000    0.17857143       0.01666667
   6:     0.21428571    0.00000000    0.21428571       0.01666667
   7:     0.25000000    0.00000000    0.25000000       0.01666667
   8:     0.28571429    0.00000000    0.28571429       0.01666667
   9:     0.32142857    0.00000000    0.32142857       0.01666667
          ...
  59:     0.37500000    0.37500000    0.75000000       0.01666667

Wave functions: Plane wave expansion
  Cutoff energy: 300.000 eV
  Number of coefficients (min, max): 176, 202
  Pulay-stress correction: 0.000000 eV/Ang^3 (de/decut=0.000000)
  Using FFTW library
  ScaLapack parameters: grid=1x1, blocksize=None
  Wavefunction extrapolation:
    Improved wavefunction reuse through dual PAW basis 

  Fermi-Dirac: width=0.0100 eV

Eigensolver
   Davidson(niter=2, smin=None, normalize=True) 

Densities:
  Coarse grid: 12*12*12 grid
  Fine grid: 24*24*24 grid
  Total Charge: 0.000000 

Density mixing:
  Method: separate
  Backend: pulay
  Linear mixing parameter: 0.05
  Mixing with 5 old densities
  Damping of long wave oscillations: 50 

Hamiltonian:
  XC and Coulomb potentials evaluated on a 24*24*24 grid
  Using the PBE Exchange-Correlation functional
 

XC parameters: PBE with 2 nearest neighbor stencil

Memory estimate:
  Process memory now: 155.81 MiB
  Calculator: 1.31 MiB
    Density: 0.68 MiB
      Arrays: 0.34 MiB
      Localized functions: 0.21 MiB
      Mixer: 0.13 MiB
    Hamiltonian: 0.23 MiB
      Arrays: 0.22 MiB
      XC: 0.00 MiB
      Poisson: 0.00 MiB
      vbar: 0.00 MiB
    Wavefunctions: 0.39 MiB
      Arrays psit_nG: 0.15 MiB
      Eigensolver: 0.10 MiB
      Projections: 0.01 MiB
      Projectors: 0.06 MiB
      PW-descriptor: 0.08 MiB

Total number of cores used: 20
Parallelization over k-points: 20

Number of atoms: 1
Number of atomic orbitals: 4
Number of bands in calculation: 16
Number of valence electrons: 3
Bands to converge: 8

... initialized

Initializing position-dependent things.

Creating initial wave functions:
  4 bands from LCAO basis set
  12 bands from random numbers

                
                
                
       Al       
                
                
                
                

Positions:
   0 Al     0.000000    0.000000    0.000000    ( 0.0000,  0.0000,  0.0000)

Unit cell:
           periodic     x           y           z      points  spacing
  1. axis:    yes    0.000000    2.025000    2.025000    12     0.1949
  2. axis:    yes    2.025000    0.000000    2.025000    12     0.1949
  3. axis:    yes    2.025000    2.025000    0.000000    12     0.1949

  Lengths:   2.863782   2.863782   2.863782
  Angles:   60.000000  60.000000  60.000000

Effective grid spacing dv^(1/3) = 0.2126

                     log10-error:    total        iterations:
           time      wfs    density  energy       poisson
iter:   1  20:10:10  +2.61           -6.280083           
iter:   2  20:10:23  +0.62           -6.280652           
iter:   3  20:10:37  -0.76           -6.280657           
iter:   4  20:10:50  -2.23           -6.280657           
iter:   5  20:11:03  -3.75           -6.280657           
iter:   6  20:11:17  -5.33           -6.280657           
iter:   7  20:11:30  -6.91           -6.280657           
iter:   8  20:11:44  -8.28           -6.280657           

Converged after 8 iterations.

band structure:
band structure:
band structure:
band structure:
band structure:
band structure:
band structure:
band structure:
band structure:
band structure:
band structure:
Dipole moment: (0.000000, 0.000000, 0.000000) |e|*Ang

Energy contributions relative to reference atoms: (reference = -6603.423265)

Kinetic:         +0.848523
Potential:       -1.544329
External:        +0.000000
XC:              -5.577951
Entropy (-ST):   -0.000054
Local:           -0.006873
--------------------------
Free energy:     -6.280684
Extrapolated:    -6.280657

Showing only first 2 kpts
 Kpt  Band  Eigenvalues  Occupancy
  0     0     -3.99612    0.03333
  0     1     19.68909    0.00000
  0     2     19.68909    0.00000

  1     0     -3.95006    0.03333
  1     1     19.13732    0.00000
  1     2     19.13732    0.00000


Fermi level: 7.08617

No gap
band structure:
band structure:
band structure:
band structure:
band structure:
band structure:
band structure:
band structure:
band structure:
Timing:                              incl.     excl.
-----------------------------------------------------------
Hamiltonian:                         0.265     0.000   0.0% |
 Atomic:                             0.056     0.056   0.0% |
  XC Correction:                     0.000     0.000   0.0% |
 Calculate atomic Hamiltonians:      0.001     0.001   0.0% |
 Communicate:                        0.001     0.001   0.0% |
 Initialize Hamiltonian:             0.000     0.000   0.0% |
 Poisson:                            0.000     0.000   0.0% |
 XC 3D grid:                         0.208     0.208   0.1% |
LCAO initialization:                 0.689     0.023   0.0% |
 LCAO eigensolver:                   0.562     0.000   0.0% |
  Calculate projections:             0.000     0.000   0.0% |
  DenseAtomicCorrection:             0.000     0.000   0.0% |
  Distribute overlap matrix:         0.000     0.000   0.0% |
  Orbital Layouts:                   0.526     0.526   0.4% |
  Potential matrix:                  0.029     0.029   0.0% |
  Sum over cells:                    0.006     0.006   0.0% |
 LCAO to grid:                       0.021     0.021   0.0% |
 Set positions (LCAO WFS):           0.083     0.009   0.0% |
  Basic WFS set positions:           0.002     0.002   0.0% |
  Basis functions set positions:     0.000     0.000   0.0% |
  P tci:                             0.010     0.010   0.0% |
  ST tci:                            0.024     0.024   0.0% |
  mktci:                             0.038     0.038   0.0% |
PWDescriptor:                        0.047     0.047   0.0% |
SCF-cycle:                          32.146     0.635   0.4% |
 Davidson:                          29.117     0.037   0.0% |
  Apply H:                           0.008     0.006   0.0% |
   HMM T:                            0.001     0.001   0.0% |
  Subspace diag:                     4.244     0.003   0.0% |
   calc_h_matrix:                    1.679     1.671   1.1% |
    Apply H:                         0.008     0.006   0.0% |
     HMM T:                          0.001     0.001   0.0% |
   diagonalize:                      2.560     2.560   1.7% ||
   rotate_psi:                       0.003     0.003   0.0% |
  calc. matrices:                    1.794     1.779   1.2% |
   Apply H:                          0.015     0.012   0.0% |
    HMM T:                           0.003     0.003   0.0% |
  diagonalize:                      23.032    23.032  15.7% |-----|
  rotate_psi:                        0.003     0.003   0.0% |
 Density:                            0.327     0.000   0.0% |
  Atomic density matrices:           0.013     0.013   0.0% |
  Mix:                               0.253     0.253   0.2% |
  Multipole moments:                 0.001     0.001   0.0% |
  Pseudo density:                    0.060     0.008   0.0% |
   Symmetrize density:               0.052     0.052   0.0% |
 Hamiltonian:                        1.996     0.003   0.0% |
  Atomic:                            0.502     0.502   0.3% |
   XC Correction:                    0.000     0.000   0.0% |
  Calculate atomic Hamiltonians:     0.004     0.004   0.0% |
  Communicate:                       0.001     0.001   0.0% |
  Poisson:                           0.001     0.001   0.0% |
  XC 3D grid:                        1.484     1.484   1.0% |
 Orthonormalize:                     0.073     0.000   0.0% |
  calc_s_matrix:                     0.071     0.071   0.0% |
  inverse-cholesky:                  0.001     0.001   0.0% |
  projections:                       0.000     0.000   0.0% |
  rotate_psi_s:                      0.000     0.000   0.0% |
Set symmetry:                        0.091     0.091   0.1% |
Other:                             113.645   113.645  77.4% |------------------------------|
-----------------------------------------------------------
Total:                                       146.883 100.0%

Date: Thu Mar 11 20:11:45 2021
Timing:                              incl.     excl.
-----------------------------------------------------------
Hamiltonian:                         0.204     0.000   0.0% |
 Atomic:                             0.055     0.055   0.1% |
  XC Correction:                     0.000     0.000   0.0% |
 Calculate atomic Hamiltonians:      0.001     0.001   0.0% |
 Communicate:                        0.005     0.005   0.0% |
 Initialize Hamiltonian:             0.000     0.000   0.0% |
 Poisson:                            0.000     0.000   0.0% |
 XC 3D grid:                         0.142     0.142   0.1% |
LCAO initialization:                 0.578     0.024   0.0% |
 LCAO eigensolver:                   0.446     0.000   0.0% |
  Calculate projections:             0.000     0.000   0.0% |
  DenseAtomicCorrection:             0.000     0.000   0.0% |
  Distribute overlap matrix:         0.000     0.000   0.0% |
  Orbital Layouts:                   0.411     0.411   0.4% |
  Potential matrix:                  0.029     0.029   0.0% |
  Sum over cells:                    0.006     0.006   0.0% |
 LCAO to grid:                       0.028     0.028   0.0% |
 Set positions (LCAO WFS):           0.079     0.009   0.0% |
  Basic WFS set positions:           0.000     0.000   0.0% |
  Basis functions set positions:     0.000     0.000   0.0% |
  P tci:                             0.010     0.010   0.0% |
  ST tci:                            0.023     0.023   0.0% |
  mktci:                             0.038     0.038   0.0% |
PWDescriptor:                        0.011     0.011   0.0% |
SCF-cycle:                         108.269     2.214   2.0% ||
 Davidson:                         105.749     1.538   1.4% ||
  Apply H:                           0.020     0.016   0.0% |
   HMM T:                            0.004     0.004   0.0% |
  Subspace diag:                    12.755     0.002   0.0% |
   calc_h_matrix:                    1.435     1.372   1.2% |
    Apply H:                         0.064     0.060   0.1% |
     HMM T:                          0.004     0.004   0.0% |
   diagonalize:                      9.795     9.795   8.8% |---|
   rotate_psi:                       1.522     1.522   1.4% ||
  calc. matrices:                    1.472     1.426   1.3% ||
   Apply H:                          0.046     0.039   0.0% |
    HMM T:                           0.007     0.007   0.0% |
  diagonalize:                      87.007    87.007  78.5% |------------------------------|
  rotate_psi:                        2.958     2.958   2.7% ||
 Orthonormalize:                     0.306     0.000   0.0% |
  calc_s_matrix:                     0.081     0.081   0.1% |
  inverse-cholesky:                  0.149     0.149   0.1% |
  projections:                       0.001     0.001   0.0% |
  rotate_psi_s:                      0.075     0.075   0.1% |
Set symmetry:                        0.000     0.000   0.0% |
Other:                               1.746     1.746   1.6% ||
-----------------------------------------------------------
Total:                                       110.808 100.0%

Date: Thu Mar 11 20:11:45 2021
