
  ___ ___ ___ _ _ _  
 |   |   |_  | | | | 
 | | | | | . | | | | 
 |__ |  _|___|_____|  19.8.1
 |___|_|             

User:   eliasel@hebbe15-3
Date:   Thu Feb 18 16:44:25 2021
Arch:   x86_64
Pid:    4841
Python: 3.7.2
gpaw:   /apps/Hebbe7/software/MPI/intel/2019.1.144-GCC-8.2.0-2.31.1/impi/2018.4.274/GPAW/19.8.1-Python-3.7.2/lib/python3.7/site-packages/gpaw
_gpaw:  /apps/Hebbe7/software/MPI/intel/2019.1.144-GCC-8.2.0-2.31.1/impi/2018.4.274/GPAW/19.8.1-Python-3.7.2/lib/python3.7/site-packages/
        _gpaw.cpython-37m-x86_64-linux-gnu.so
ase:    /apps/Hebbe7/software/MPI/intel/2019.1.144-GCC-8.2.0-2.31.1/impi/2018.4.274/ASE/3.18.0-Python-3.7.2/lib/python3.7/site-packages/ase (version 3.18.0)
numpy:  /apps/Hebbe7/software/MPI/intel/2019.1.144-GCC-8.2.0-2.31.1/impi/2018.4.274/SciPy-bundle/2019.03/lib/python3.7/site-packages/numpy (version 1.16.2)
scipy:  /apps/Hebbe7/software/MPI/intel/2019.1.144-GCC-8.2.0-2.31.1/impi/2018.4.274/SciPy-bundle/2019.03/lib/python3.7/site-packages/scipy (version 1.2.1)
libxc:  4.3.4
units:  Angstrom and eV
cores:  1

Input parameters:
  convergence: {bands: -10}
  fixdensity: True
  nbands: 110

Initialize ...

Na-setup:
  name: Sodium
  id: fa5c50181d04022fed15b2593599c257
  Z: 11
  valence: 1
  core: 10
  charge: 0.0
  file: /apps/Hebbe7/software/Core/GPAW-setups/0.9.20000/Na.1.LDA.gz
  compensation charges: gauss, rc=0.43, lmax=2
  cutoffs: 2.36(filt), 3.60(core),
  valence states:
                energy  radius
    3s(1.00)    -2.819   1.349
    3p(0.00)    -0.774   1.349
    *s          24.392   1.349

  Using partial waves for Na as LCAO basis

Reference energy: -35189.668405

Spin-paired calculation

Occupation numbers:
  Fixed Fermi level
  Fermi-Dirac: width=0.0000 eV

Convergence criteria:
  Maximum total energy change: 0.0005 eV / electron
  Maximum integral of absolute density change: 0.0001 electrons
  Maximum integral of absolute eigenstate change: 4e-08 eV^2
  Maximum number of iterations: 333

Symmetries present (total): 1

  ( 1  0  0)
  ( 0  1  0)
  ( 0  0  1)

1 k-point (Gamma)
1 k-point in the irreducible part of the Brillouin zone
       k-points in crystal coordinates                weights
   0:     0.00000000    0.00000000    0.00000000          1/1

Wave functions: Uniform real-space grid
  Kinetic energy operator: 6*3+1=19 point O(h^6) finite-difference Laplacian
  ScaLapack parameters: grid=1x1, blocksize=None
  Wavefunction extrapolation:
    Improved wavefunction reuse through dual PAW basis 

Eigensolver
   Davidson(niter=2, smin=None, normalize=True) 

No density mixing

Memory estimate:
  Process memory now: 307.29 MiB
  Calculator: 685.66 MiB
    Density: 93.67 MiB
      Arrays: 64.51 MiB
      Localized functions: 14.57 MiB
      Mixer: 14.59 MiB
    Hamiltonian: 43.25 MiB
      Arrays: 42.20 MiB
      XC: 0.00 MiB
      Poisson: 0.00 MiB
      vbar: 1.05 MiB
    Wavefunctions: 548.73 MiB
      Arrays psit_nG: 267.48 MiB
      Eigensolver: 280.56 MiB
      Projections: 0.03 MiB
      Projectors: 0.66 MiB

Total number of cores used: 1

Number of atoms: 8
Number of atomic orbitals: 32
Number of bands in calculation: 110
Bands to converge: -10 lowest bands
Number of valence electrons: 8

... initialized

Initializing position-dependent things.

Creating initial wave functions:
  32 bands from LCAO basis set
  78 bands from random numbers

             .------------------------------------------------.  
            /|                                                |  
           / |                                                |  
          /  |                                                |  
         /   |                                                |  
        /    |                                                |  
       /     |                                                |  
      /      |                                                |  
     /       |                                                |  
    /        |                                                |  
   /         |                                                |  
  /          |                                                |  
 *           |                                                |  
 |           |                                                |  
 |           |                                                |  
 |           |                      Na                        |  
 |           |             Na                                 |  
 |           |                Na                              |  
 |           |                                                |  
 |           |                   Na  Na                       |  
 |           |            Na                                  |  
 |           |                                                |  
 |           |                Na                              |  
 |           |                   Na                           |  
 |           |                                                |  
 |           |                                                |  
 |           .------------------------------------------------.  
 |          /                                                /   
 |         /                                                /    
 |        /                                                /     
 |       /                                                /      
 |      /                                                /       
 |     /                                                /        
 |    /                                                /         
 |   /                                                /          
 |  /                                                /           
 | /                                                /            
 |/                                                /             
 *------------------------------------------------*              

Positions:
   0 Na    11.144626    8.090647   11.876539    ( 0.0000,  0.0000,  0.0000)
   1 Na    10.977844    8.000000    8.614803    ( 0.0000,  0.0000,  0.0000)
   2 Na    11.397682   11.261714   13.134418    ( 0.0000,  0.0000,  0.0000)
   3 Na    12.011229   10.994755    9.947283    ( 0.0000,  0.0000,  0.0000)
   4 Na     8.333340    9.460341   13.327794    ( 0.0000,  0.0000,  0.0000)
   5 Na     9.175418   10.970944    8.000000    ( 0.0000,  0.0000,  0.0000)
   6 Na     8.756920   12.012941   11.065977    ( 0.0000,  0.0000,  0.0000)
   7 Na     8.000000    8.603132   10.209496    ( 0.0000,  0.0000,  0.0000)

Unit cell:
           periodic     x           y           z      points  spacing
  1. axis:    no    20.011229    0.000000    0.000000    68     0.2943
  2. axis:    no     0.000000   20.012941    0.000000    68     0.2943
  3. axis:    no     0.000000    0.000000   21.327794    72     0.2962

  Lengths:  20.011229  20.012941  21.327794
  Angles:   90.000000  90.000000  90.000000

Effective grid spacing dv^(1/3) = 0.2949

                     log10-error:    total        iterations:
           time      wfs    density  energy       fermi  poisson
iter:   1  16:44:46  +3.41           -7.897948    0      1      
iter:   2  16:45:02  +2.66           -7.929229    0             
iter:   3  16:45:18  +2.41           -7.935170    0             
iter:   4  16:45:34  +2.13           -7.937052    0             
iter:   5  16:45:50  +1.90           -7.937759    0             
iter:   6  16:46:06  +1.70           -7.938047    0             
iter:   7  16:46:22  +1.53           -7.938168    0             
iter:   8  16:46:37  +1.38           -7.938221    0             
iter:   9  16:46:53  +1.25           -7.938244    0             
iter:  10  16:47:09  +1.12           -7.938254    0             
iter:  11  16:47:25  +1.00           -7.938258    0             
iter:  12  16:47:41  +0.89           -7.938260    0             
iter:  13  16:47:57  +0.78           -7.938261    0             
iter:  14  16:48:13  +0.68           -7.938261    0             
iter:  15  16:48:28  +0.59           -7.938262    0             
iter:  16  16:48:44  +0.51           -7.938262    0             
iter:  17  16:49:00  +0.43           -7.938262    0             
iter:  18  16:49:16  +0.35           -7.938262    0             
iter:  19  16:49:32  +0.28           -7.938262    0             
iter:  20  16:49:48  +0.20           -7.938262    0             
iter:  21  16:50:03  +0.13           -7.938262    0             
iter:  22  16:50:19  +0.06           -7.938262    0             
iter:  23  16:50:35  -0.01           -7.938262    0             
iter:  24  16:50:51  -0.07           -7.938262    0             
iter:  25  16:51:07  -0.14           -7.938262    0             
iter:  26  16:51:23  -0.21           -7.938262    0             
iter:  27  16:51:38  -0.27           -7.938262    0             
iter:  28  16:51:54  -0.33           -7.938262    0             
iter:  29  16:52:10  -0.39           -7.938262    0             
iter:  30  16:52:26  -0.45           -7.938262    0             
iter:  31  16:52:42  -0.51           -7.938262    0             
iter:  32  16:52:58  -0.57           -7.938262    0             
iter:  33  16:53:14  -0.63           -7.938262    0             
iter:  34  16:53:30  -0.69           -7.938262    0             
iter:  35  16:53:45  -0.74           -7.938262    0             
iter:  36  16:54:01  -0.80           -7.938262    0             
iter:  37  16:54:17  -0.85           -7.938262    0             
iter:  38  16:54:33  -0.90           -7.938262    0             
iter:  39  16:54:49  -0.96           -7.938262    0             
iter:  40  16:55:05  -1.01           -7.938262    0             
iter:  41  16:55:21  -1.06           -7.938262    0             
iter:  42  16:55:37  -1.11           -7.938262    0             
iter:  43  16:55:52  -1.16           -7.938262    0             
iter:  44  16:56:08  -1.21           -7.938262    0             
iter:  45  16:56:24  -1.26           -7.938262    0             
iter:  46  16:56:40  -1.31           -7.938262    0             
iter:  47  16:56:56  -1.36           -7.938262    0             
iter:  48  16:57:12  -1.41           -7.938262    0             
iter:  49  16:57:28  -1.45           -7.938262    0             
iter:  50  16:57:44  -1.50           -7.938262    0             
iter:  51  16:58:00  -1.55           -7.938262    0             
iter:  52  16:58:15  -1.59           -7.938262    0             
iter:  53  16:58:31  -1.64           -7.938262    0             
iter:  54  16:58:47  -1.68           -7.938262    0             
iter:  55  16:59:03  -1.73           -7.938262    0             
iter:  56  16:59:19  -1.77           -7.938262    0             
iter:  57  16:59:35  -1.81           -7.938262    0             
iter:  58  16:59:51  -1.86           -7.938262    0             
iter:  59  17:00:06  -1.90           -7.938262    0             
iter:  60  17:00:22  -1.94           -7.938262    0             
iter:  61  17:00:38  -1.99           -7.938262    0             
iter:  62  17:00:54  -2.03           -7.938262    0             
iter:  63  17:01:10  -2.07           -7.938262    0             
iter:  64  17:01:26  -2.11           -7.938262    0             
iter:  65  17:01:42  -2.16           -7.938262    0             
iter:  66  17:01:58  -2.20           -7.938262    0             
iter:  67  17:02:14  -2.24           -7.938262    0             
iter:  68  17:02:29  -2.28           -7.938262    0             
iter:  69  17:02:45  -2.32           -7.938262    0             
iter:  70  17:03:01  -2.36           -7.938262    0             
iter:  71  17:03:17  -2.41           -7.938262    0             
iter:  72  17:03:33  -2.45           -7.938262    0             
iter:  73  17:03:49  -2.49           -7.938262    0             
iter:  74  17:04:05  -2.53           -7.938262    0             
iter:  75  17:04:21  -2.57           -7.938262    0             
iter:  76  17:04:37  -2.61           -7.938262    0             
iter:  77  17:04:53  -2.65           -7.938262    0             
iter:  78  17:05:09  -2.69           -7.938262    0             
iter:  79  17:05:25  -2.73           -7.938262    0             
iter:  80  17:05:40  -2.78           -7.938262    0             
iter:  81  17:05:56  -2.82           -7.938262    0             
iter:  82  17:06:12  -2.86           -7.938262    0             
iter:  83  17:06:28  -2.90           -7.938262    0             
iter:  84  17:06:44  -2.94           -7.938262    0             
iter:  85  17:07:00  -2.98           -7.938262    0             
iter:  86  17:07:16  -3.02           -7.938262    0             
iter:  87  17:07:32  -3.06           -7.938262    0             
iter:  88  17:07:48  -3.11           -7.938262    0             
iter:  89  17:08:04  -3.15           -7.938262    0             
iter:  90  17:08:20  -3.19           -7.938262    0             
iter:  91  17:08:36  -3.23           -7.938262    0             
iter:  92  17:08:52  -3.27           -7.938262    0             
iter:  93  17:09:08  -3.31           -7.938262    0             
iter:  94  17:09:24  -3.36           -7.938262    0             
iter:  95  17:09:40  -3.40           -7.938262    0             
iter:  96  17:09:56  -3.44           -7.938262    0             
iter:  97  17:10:12  -3.48           -7.938262    0             
iter:  98  17:10:28  -3.52           -7.938262    0             
iter:  99  17:10:44  -3.57           -7.938262    0             
iter: 100  17:10:59  -3.61           -7.938262    0             
iter: 101  17:11:15  -3.65           -7.938262    0             
iter: 102  17:11:31  -3.69           -7.938262    0             
iter: 103  17:11:47  -3.73           -7.938262    0             
iter: 104  17:12:03  -3.78           -7.938262    0             
iter: 105  17:12:19  -3.82           -7.938262    0             
iter: 106  17:12:35  -3.86           -7.938262    0             
iter: 107  17:12:51  -3.90           -7.938262    0             
iter: 108  17:13:07  -3.94           -7.938262    0             
iter: 109  17:13:23  -3.99           -7.938262    0             
iter: 110  17:13:39  -4.03           -7.938262    0             
iter: 111  17:13:55  -4.07           -7.938262    0             
iter: 112  17:14:11  -4.11           -7.938262    0             
iter: 113  17:14:27  -4.15           -7.938262    0             
iter: 114  17:14:43  -4.19           -7.938262    0             
iter: 115  17:14:59  -4.24           -7.938262    0             
iter: 116  17:15:15  -4.28           -7.938262    0             
iter: 117  17:15:31  -4.32           -7.938262    0             
iter: 118  17:15:47  -4.37           -7.938262    0             
iter: 119  17:16:02  -4.40           -7.938262    0             
iter: 120  17:16:18  -4.45           -7.938262    0             
iter: 121  17:16:34  -4.49           -7.938262    0             
iter: 122  17:16:50  -4.53           -7.938262    0             
iter: 123  17:17:06  -4.58           -7.938262    0             
iter: 124  17:17:22  -4.62           -7.938262    0             
iter: 125  17:17:37  -4.66           -7.938262    0             
iter: 126  17:17:53  -4.70           -7.938262    0             
iter: 127  17:18:09  -4.74           -7.938262    0             
iter: 128  17:18:25  -4.78           -7.938262    0             
iter: 129  17:18:41  -4.83           -7.938262    0             
iter: 130  17:18:57  -4.87           -7.938262    0             
iter: 131  17:19:12  -4.91           -7.938262    0             
iter: 132  17:19:28  -4.95           -7.938262    0             
iter: 133  17:19:44  -5.00           -7.938262    0             
iter: 134  17:20:00  -5.04           -7.938262    0             
iter: 135  17:20:16  -5.08           -7.938262    0             
iter: 136  17:20:32  -5.12           -7.938262    0             
iter: 137  17:20:48  -5.16           -7.938262    0             
iter: 138  17:21:04  -5.21           -7.938262    0             
iter: 139  17:21:19  -5.25           -7.938262    0             
iter: 140  17:21:35  -5.29           -7.938262    0             
iter: 141  17:21:51  -5.33           -7.938262    0             
iter: 142  17:22:07  -5.37           -7.938262    0             
iter: 143  17:22:23  -5.41           -7.938262    0             
iter: 144  17:22:39  -5.45           -7.938262    0             
iter: 145  17:22:55  -5.50           -7.938262    0             
iter: 146  17:23:11  -5.54           -7.938262    0             
iter: 147  17:23:27  -5.58           -7.938262    0             
iter: 148  17:23:43  -5.62           -7.938262    0             
iter: 149  17:23:59  -5.66           -7.938262    0             
iter: 150  17:24:15  -5.71           -7.938262    0             
iter: 151  17:24:31  -5.75           -7.938262    0             
iter: 152  17:24:47  -5.79           -7.938262    0             
iter: 153  17:25:03  -5.83           -7.938262    0             
iter: 154  17:25:19  -5.87           -7.938262    0             
iter: 155  17:25:35  -5.92           -7.938262    0             
iter: 156  17:25:51  -5.96           -7.938262    0             
iter: 157  17:26:07  -6.00           -7.938262    0             
iter: 158  17:26:23  -6.04           -7.938262    0             
iter: 159  17:26:39  -6.08           -7.938262    0             
iter: 160  17:26:55  -6.13           -7.938262    0             
iter: 161  17:27:11  -6.17           -7.938262    0             
iter: 162  17:27:28  -6.21           -7.938262    0             
iter: 163  17:27:44  -6.25           -7.938262    0             
iter: 164  17:28:00  -6.29           -7.938262    0             
iter: 165  17:28:16  -6.33           -7.938262    0             
iter: 166  17:28:32  -6.37           -7.938262    0             
iter: 167  17:28:47  -6.42           -7.938262    0             
iter: 168  17:29:03  -6.46           -7.938262    0             
iter: 169  17:29:19  -6.50           -7.938262    0             
iter: 170  17:29:35  -6.54           -7.938262    0             
iter: 171  17:29:51  -6.58           -7.938262    0             
iter: 172  17:30:07  -6.63           -7.938262    0             
iter: 173  17:30:23  -6.67           -7.938262    0             
iter: 174  17:30:39  -6.71           -7.938262    0             
iter: 175  17:30:54  -6.75           -7.938262    0             
iter: 176  17:31:10  -6.79           -7.938262    0             
iter: 177  17:31:26  -6.84           -7.938262    0             
iter: 178  17:31:42  -6.88           -7.938262    0             
iter: 179  17:31:58  -6.92           -7.938262    0             
iter: 180  17:32:14  -6.96           -7.938262    0             
iter: 181  17:32:30  -7.00           -7.938262    0             
iter: 182  17:32:46  -7.05           -7.938262    0             
iter: 183  17:33:01  -7.09           -7.938262    0             
iter: 184  17:33:17  -7.13           -7.938262    0             
iter: 185  17:33:33  -7.17           -7.938262    0             
iter: 186  17:33:49  -7.21           -7.938262    0             
iter: 187  17:34:05  -7.26           -7.938262    0             
iter: 188  17:34:21  -7.30           -7.938262    0             
iter: 189  17:34:37  -7.34           -7.938262    0             
iter: 190  17:34:51  -7.38           -7.938262    0             
iter: 191  17:35:05  -7.42           -7.938262    0             

Converged after 191 iterations.

Dipole moment: (-0.000640, 0.001030, 0.001884) |e|*Ang

Energy contributions relative to reference atoms: (reference = -35189.668405)

Kinetic:        +16.693179
Potential:      -15.040537
External:        +0.000000
XC:              -9.569194
Entropy (-ST):   +0.000000
Local:           -0.021710
--------------------------
Free energy:     -7.938262
Extrapolated:    -7.938262

 Band  Eigenvalues  Occupancy
    0     -4.72019    2.00000
    1     -3.51352    2.00000
    2     -3.13979    2.00000
    3     -3.12979    2.00000
    4     -1.98258    0.00000
    5     -1.85981    0.00000
    6     -1.85275    0.00000
    7     -1.63060    0.00000
    8     -1.50664    0.00000
    9     -1.38210    0.00000
   10     -0.70968    0.00000
   11     -0.54119    0.00000
   12     -0.53436    0.00000
   13     -0.41214    0.00000
   14     -0.36083    0.00000
   15     -0.26638    0.00000
   16     -0.25793    0.00000
   17     -0.20460    0.00000
   18      0.14551    0.00000
   19      0.14832    0.00000
   20      0.26715    0.00000
   21      0.40038    0.00000
   22      0.40637    0.00000
   23      0.51390    0.00000
   24      0.51765    0.00000
   25      0.61629    0.00000
   26      0.69720    0.00000
   27      0.81946    0.00000
   28      0.82959    0.00000
   29      0.89982    0.00000
   30      0.90377    0.00000
   31      0.92180    0.00000
   32      0.94485    0.00000
   33      0.96428    0.00000
   34      1.02247    0.00000
   35      1.06428    0.00000
   36      1.06846    0.00000
   37      1.12257    0.00000
   38      1.14425    0.00000
   39      1.14592    0.00000
   40      1.16402    0.00000
   41      1.21426    0.00000
   42      1.25713    0.00000
   43      1.45938    0.00000
   44      1.47331    0.00000
   45      1.51252    0.00000
   46      1.52004    0.00000
   47      1.52179    0.00000
   48      1.55239    0.00000
   49      1.69578    0.00000
   50      1.71600    0.00000
   51      1.72229    0.00000
   52      1.72976    0.00000
   53      1.75721    0.00000
   54      1.78971    0.00000
   55      1.79678    0.00000
   56      1.83499    0.00000
   57      1.85397    0.00000
   58      1.86897    0.00000
   59      1.91867    0.00000
   60      1.93384    0.00000
   61      1.94139    0.00000
   62      1.97836    0.00000
   63      2.03884    0.00000
   64      2.04342    0.00000
   65      2.07523    0.00000
   66      2.09103    0.00000
   67      2.11091    0.00000
   68      2.12420    0.00000
   69      2.21643    0.00000
   70      2.23572    0.00000
   71      2.25269    0.00000
   72      2.27053    0.00000
   73      2.29837    0.00000
   74      2.40072    0.00000
   75      2.41412    0.00000
   76      2.42936    0.00000
   77      2.45960    0.00000
   78      2.49352    0.00000
   79      2.52313    0.00000
   80      2.53798    0.00000
   81      2.56542    0.00000
   82      2.57983    0.00000
   83      2.61350    0.00000
   84      2.64933    0.00000
   85      2.66003    0.00000
   86      2.70259    0.00000
   87      2.71263    0.00000
   88      2.75220    0.00000
   89      2.75744    0.00000
   90      2.78603    0.00000
   91      2.78885    0.00000
   92      2.79933    0.00000
   93      2.82408    0.00000
   94      2.83243    0.00000
   95      2.84696    0.00000
   96      2.85220    0.00000
   97      2.89908    0.00000
   98      2.95425    0.00000
   99      2.95715    0.00000
  100      2.98901    0.00000
  101      3.01428    0.00000
  102      3.03341    0.00000
  103      3.11416    0.00000
  104      3.11859    0.00000
  105      3.12448    0.00000
  106      3.13625    0.00000
  107      3.17200    0.00000
  108      3.20781    0.00000
  109      3.27086    0.00000

Writing to Na_110n.gpw (mode='all')

Timing:                              incl.     excl.
-----------------------------------------------------------
Hamiltonian:                         1.565     0.000   0.0% |
 Atomic:                             0.139     0.001   0.0% |
  XC Correction:                     0.138     0.138   0.0% |
 Calculate atomic Hamiltonians:      0.006     0.006   0.0% |
 Communicate:                        0.000     0.000   0.0% |
 Hartree integrate/restrict:         0.074     0.074   0.0% |
 Poisson:                            0.523     0.044   0.0% |
  Communicate bwd 0:                 0.063     0.063   0.0% |
  Communicate bwd 1:                 0.039     0.039   0.0% |
  Communicate fwd 0:                 0.046     0.046   0.0% |
  Communicate fwd 1:                 0.058     0.058   0.0% |
  fft:                               0.072     0.072   0.0% |
  fft2:                              0.202     0.202   0.0% |
 XC 3D grid:                         0.677     0.677   0.0% |
 vbar:                               0.146     0.146   0.0% |
LCAO initialization:                 0.842     0.637   0.0% |
 LCAO eigensolver:                   0.029     0.000   0.0% |
  Calculate projections:             0.000     0.000   0.0% |
  DenseAtomicCorrection:             0.000     0.000   0.0% |
  Distribute overlap matrix:         0.000     0.000   0.0% |
  Orbital Layouts:                   0.016     0.016   0.0% |
  Potential matrix:                  0.013     0.013   0.0% |
 LCAO to grid:                       0.143     0.143   0.0% |
 Set positions (LCAO WFS):           0.032     0.008   0.0% |
  Basic WFS set positions:           0.000     0.000   0.0% |
  Basis functions set positions:     0.000     0.000   0.0% |
  P tci:                             0.018     0.018   0.0% |
  ST tci:                            0.004     0.004   0.0% |
  mktci:                             0.001     0.001   0.0% |
Redistribute:                        0.000     0.000   0.0% |
SCF-cycle:                        3036.466     0.099   0.0% |
 Davidson:                        3035.661  1230.281  40.4% |---------------|
  Apply hamiltonian:               242.545   242.545   8.0% |--|
  Subspace diag:                   424.169     0.029   0.0% |
   calc_h_matrix:                  302.719    59.513   2.0% ||
    Apply hamiltonian:             243.206   243.206   8.0% |--|
   diagonalize:                      0.397     0.397   0.0% |
   rotate_psi:                     121.023   121.023   4.0% |-|
  calc. matrices:                  894.050   408.727  13.4% |----|
   Apply hamiltonian:              485.322   485.322  15.9% |-----|
  diagonalize:                       3.378     3.378   0.1% |
  rotate_psi:                      241.238   241.238   7.9% |--|
 Orthonormalize:                     0.707     0.000   0.0% |
  calc_s_matrix:                     0.175     0.175   0.0% |
  inverse-cholesky:                  0.010     0.010   0.0% |
  projections:                       0.044     0.044   0.0% |
  rotate_psi_s:                      0.477     0.477   0.0% |
Set symmetry:                        0.002     0.002   0.0% |
Other:                               6.896     6.896   0.2% |
-----------------------------------------------------------
Total:                                      3045.771 100.0%

Date: Thu Feb 18 17:35:05 2021

