
  ___ ___ ___ _ _ _  
 |   |   |_  | | | | 
 | | | | | . | | | | 
 |__ |  _|___|_____|  19.8.1
 |___|_|             

User:   eliasel@hebbe1
Date:   Thu Feb 18 16:37:41 2021
Arch:   x86_64
Pid:    29813
Python: 3.7.2
gpaw:   /apps/Hebbe7/software/MPI/intel/2019.1.144-GCC-8.2.0-2.31.1/impi/2018.4.274/GPAW/19.8.1-Python-3.7.2/lib/python3.7/site-packages/gpaw
_gpaw:  /apps/Hebbe7/software/MPI/intel/2019.1.144-GCC-8.2.0-2.31.1/impi/2018.4.274/GPAW/19.8.1-Python-3.7.2/lib/python3.7/site-packages/
        _gpaw.cpython-37m-x86_64-linux-gnu.so
ase:    /apps/Hebbe7/software/MPI/intel/2019.1.144-GCC-8.2.0-2.31.1/impi/2018.4.274/ASE/3.18.0-Python-3.7.2/lib/python3.7/site-packages/ase (version 3.18.0)
numpy:  /apps/Hebbe7/software/MPI/intel/2019.1.144-GCC-8.2.0-2.31.1/impi/2018.4.274/SciPy-bundle/2019.03/lib/python3.7/site-packages/numpy (version 1.16.2)
scipy:  /apps/Hebbe7/software/MPI/intel/2019.1.144-GCC-8.2.0-2.31.1/impi/2018.4.274/SciPy-bundle/2019.03/lib/python3.7/site-packages/scipy (version 1.2.1)
libxc:  4.3.4
units:  Angstrom and eV
cores:  1

Input parameters:
  h: 0.3
  nbands: 0
  setups: {Na: 1}

System changes: positions, numbers, cell, pbc, initial_charges, initial_magmoms 

Initialize ...

Na-setup:
  name: Sodium
  id: fa5c50181d04022fed15b2593599c257
  Z: 11
  valence: 1
  core: 10
  charge: 0.0
  file: /apps/Hebbe7/software/Core/GPAW-setups/0.9.20000/Na.1.LDA.gz
  compensation charges: gauss, rc=0.43, lmax=2
  cutoffs: 2.36(filt), 3.60(core),
  valence states:
                energy  radius
    3s(1.00)    -2.819   1.349
    3p(0.00)    -0.774   1.349
    *s          24.392   1.349

  Using partial waves for Na as LCAO basis

Reference energy: -35189.668405

Spin-paired calculation

Occupation numbers:
  Fermi-Dirac: width=0.0000 eV

Convergence criteria:
  Maximum total energy change: 0.0005 eV / electron
  Maximum integral of absolute density change: 0.0001 electrons
  Maximum integral of absolute eigenstate change: 4e-08 eV^2
  Maximum number of iterations: 333

Symmetries present (total): 1

  ( 1  0  0)
  ( 0  1  0)
  ( 0  0  1)

1 k-point (Gamma)
1 k-point in the irreducible part of the Brillouin zone
       k-points in crystal coordinates                weights
   0:     0.00000000    0.00000000    0.00000000          1/1

Wave functions: Uniform real-space grid
  Kinetic energy operator: 6*3+1=19 point O(h^6) finite-difference Laplacian
  ScaLapack parameters: grid=1x1, blocksize=None
  Wavefunction extrapolation:
    Improved wavefunction reuse through dual PAW basis 

Eigensolver
   Davidson(niter=2, smin=None, normalize=True) 

Densities:
  Coarse grid: 68*68*72 grid
  Fine grid: 136*136*144 grid
  Total Charge: 0.000000 

Density mixing:
  Method: separate
  Backend: pulay
  Linear mixing parameter: 0.25
  Mixing with 3 old densities
  No damping of long wave oscillations 

Hamiltonian:
  XC and Coulomb potentials evaluated on a 136*136*144 grid
  Using the LDA Exchange-Correlation functional
  Interpolation: tri-quintic (5. degree polynomial)
  Poisson solver: FastPoissonSolver using
    6*3+1=19 point O(h^6) finite-difference Laplacian stencil;
    FFT axes: [];
    FST axes: [0, 1, 2].
 

Memory estimate:
  Process memory now: 304.14 MiB
  Calculator: 169.19 MiB
    Density: 93.67 MiB
      Arrays: 64.51 MiB
      Localized functions: 14.57 MiB
      Mixer: 14.59 MiB
    Hamiltonian: 43.25 MiB
      Arrays: 42.20 MiB
      XC: 0.00 MiB
      Poisson: 0.00 MiB
      vbar: 1.05 MiB
    Wavefunctions: 32.27 MiB
      Arrays psit_nG: 9.73 MiB
      Eigensolver: 21.89 MiB
      Projections: 0.00 MiB
      Projectors: 0.66 MiB

Total number of cores used: 1

Number of atoms: 8
Number of atomic orbitals: 32
Number of bands in calculation: 4
Bands to converge: occupied states only
Number of valence electrons: 8

... initialized

Initializing position-dependent things.

Density initialized from atomic densities
Creating initial wave functions:
  4 bands from LCAO basis set

             .------------------------------------------------.  
            /|                                                |  
           / |                                                |  
          /  |                                                |  
         /   |                                                |  
        /    |                                                |  
       /     |                                                |  
      /      |                                                |  
     /       |                                                |  
    /        |                                                |  
   /         |                                                |  
  /          |                                                |  
 *           |                                                |  
 |           |                                                |  
 |           |                                                |  
 |           |                      Na                        |  
 |           |             Na                                 |  
 |           |                Na                              |  
 |           |                                                |  
 |           |                   Na  Na                       |  
 |           |            Na                                  |  
 |           |                                                |  
 |           |                Na                              |  
 |           |                   Na                           |  
 |           |                                                |  
 |           |                                                |  
 |           .------------------------------------------------.  
 |          /                                                /   
 |         /                                                /    
 |        /                                                /     
 |       /                                                /      
 |      /                                                /       
 |     /                                                /        
 |    /                                                /         
 |   /                                                /          
 |  /                                                /           
 | /                                                /            
 |/                                                /             
 *------------------------------------------------*              

Positions:
   0 Na    11.144626    8.090647   11.876539    ( 0.0000,  0.0000,  0.0000)
   1 Na    10.977844    8.000000    8.614803    ( 0.0000,  0.0000,  0.0000)
   2 Na    11.397682   11.261714   13.134418    ( 0.0000,  0.0000,  0.0000)
   3 Na    12.011229   10.994755    9.947283    ( 0.0000,  0.0000,  0.0000)
   4 Na     8.333340    9.460341   13.327794    ( 0.0000,  0.0000,  0.0000)
   5 Na     9.175418   10.970944    8.000000    ( 0.0000,  0.0000,  0.0000)
   6 Na     8.756920   12.012941   11.065977    ( 0.0000,  0.0000,  0.0000)
   7 Na     8.000000    8.603132   10.209496    ( 0.0000,  0.0000,  0.0000)

Unit cell:
           periodic     x           y           z      points  spacing
  1. axis:    no    20.011229    0.000000    0.000000    68     0.2943
  2. axis:    no     0.000000   20.012941    0.000000    68     0.2943
  3. axis:    no     0.000000    0.000000   21.327794    72     0.2962

  Lengths:  20.011229  20.012941  21.327794
  Angles:   90.000000  90.000000  90.000000

Effective grid spacing dv^(1/3) = 0.2949

                     log10-error:    total        iterations:
           time      wfs    density  energy       fermi  poisson
iter:   1  16:37:47  +0.31   +inf    -8.319695    0      1      
iter:   2  16:37:49  +0.36  -0.46    -7.917879    0      1      
iter:   3  16:37:51  +0.59  -0.65    -8.012878    0      1      
iter:   4  16:37:53  +0.11  -0.95    -8.129835    0      1      
iter:   5  16:37:55  -0.32  -0.78    -7.937659    0      1      
iter:   6  16:37:56  +0.08  -1.16    -7.953868    0      1      
iter:   7  16:37:58  -1.69  -1.45    -7.943444    0      1      
iter:   8  16:38:00  -2.34  -1.58    -7.942877    0      1      
iter:   9  16:38:02  -1.39  -1.58    -7.946577    0      1      
iter:  10  16:38:03  -1.19  -1.50    -7.937485    0      1      
iter:  11  16:38:05  -1.24  -2.12    -7.940051    0      1      
iter:  12  16:38:07  -2.23  -1.87    -7.940332    0      1      
iter:  13  16:38:09  -3.31  -1.77    -7.939178    0      1      
iter:  14  16:38:11  -2.90  -1.86    -7.940472    0      1      
iter:  15  16:38:12  -2.35  -1.72    -7.938401    0      1      
iter:  16  16:38:14  -3.40  -2.33    -7.938259    0      1      
iter:  17  16:38:16  -2.46  -2.58    -7.938381    0      1      
iter:  18  16:38:18  -3.16  -2.48    -7.938268    0      1      
iter:  19  16:38:19  -4.11  -3.04    -7.938270    0      1      
iter:  20  16:38:21  -4.42  -3.06    -7.938261    0      1      
iter:  21  16:38:23  -4.59  -3.69    -7.938262    0      1      
iter:  22  16:38:25  -4.72  -3.73    -7.938263    0      1      
iter:  23  16:38:27  -5.89  -3.41    -7.938262    0      1      
iter:  24  16:38:28  -5.10  -3.65    -7.938262    0      1      
iter:  25  16:38:30  -6.19  -3.76    -7.938262    0      1      
iter:  26  16:38:32  -7.23  -4.10    -7.938262    0      1      
iter:  27  16:38:34  -6.00  -4.09    -7.938262    0      1      
iter:  28  16:38:35  -6.87  -3.88    -7.938262    0      1      
iter:  29  16:38:37  -6.29  -4.00    -7.938262    0      1      
iter:  30  16:38:39  -7.53  -4.63    -7.938262    0      1      

Converged after 30 iterations.

Dipole moment: (-0.000640, 0.001030, 0.001884) |e|*Ang

Energy contributions relative to reference atoms: (reference = -35189.668405)

Kinetic:        +16.693179
Potential:      -15.040537
External:        +0.000000
XC:              -9.569194
Entropy (-ST):   +0.000000
Local:           -0.021710
--------------------------
Free energy:     -7.938262
Extrapolated:    -7.938262

 Band  Eigenvalues  Occupancy
    0     -4.72019    2.00000
    1     -3.51352    2.00000
    2     -3.13979    2.00000
    3     -3.12979    2.00000

Writing to gsNa8.gpw (mode='all')

Timing:                              incl.     excl.
-----------------------------------------------------------
Hamiltonian:                         1.264     0.000   0.0% |
 Atomic:                             0.140     0.001   0.0% |
  XC Correction:                     0.139     0.139   0.2% |
 Calculate atomic Hamiltonians:      0.009     0.009   0.0% |
 Communicate:                        0.000     0.000   0.0% |
 Hartree integrate/restrict:         0.057     0.057   0.1% |
 Initialize Hamiltonian:             0.000     0.000   0.0% |
 Poisson:                            0.383     0.027   0.0% |
  Communicate bwd 0:                 0.036     0.036   0.1% |
  Communicate bwd 1:                 0.025     0.025   0.0% |
  Communicate fwd 0:                 0.035     0.035   0.1% |
  Communicate fwd 1:                 0.038     0.038   0.1% |
  fft:                               0.046     0.046   0.1% |
  fft2:                              0.177     0.177   0.3% |
 XC 3D grid:                         0.654     0.654   1.1% |
 vbar:                               0.019     0.019   0.0% |
LCAO initialization:                 0.077     0.018   0.0% |
 LCAO eigensolver:                   0.019     0.000   0.0% |
  Calculate projections:             0.000     0.000   0.0% |
  DenseAtomicCorrection:             0.000     0.000   0.0% |
  Distribute overlap matrix:         0.000     0.000   0.0% |
  Orbital Layouts:                   0.002     0.002   0.0% |
  Potential matrix:                  0.016     0.016   0.0% |
 LCAO to grid:                       0.008     0.008   0.0% |
 Set positions (LCAO WFS):           0.032     0.007   0.0% |
  Basic WFS set positions:           0.000     0.000   0.0% |
  Basis functions set positions:     0.000     0.000   0.0% |
  P tci:                             0.018     0.018   0.0% |
  ST tci:                            0.005     0.005   0.0% |
  mktci:                             0.002     0.002   0.0% |
SCF-cycle:                          51.779     0.018   0.0% |
 Davidson:                          11.246     5.096   8.9% |---|
  Apply hamiltonian:                 1.279     1.279   2.2% ||
  Subspace diag:                     1.537     0.004   0.0% |
   calc_h_matrix:                    1.345     0.049   0.1% |
    Apply hamiltonian:               1.296     1.296   2.3% ||
   diagonalize:                      0.011     0.011   0.0% |
   rotate_psi:                       0.177     0.177   0.3% |
  calc. matrices:                    2.952     0.385   0.7% |
   Apply hamiltonian:                2.568     2.568   4.5% |-|
  diagonalize:                       0.017     0.017   0.0% |
  rotate_psi:                        0.365     0.365   0.6% |
 Density:                            4.380     0.001   0.0% |
  Atomic density matrices:           0.030     0.030   0.1% |
  Mix:                               4.270     4.270   7.4% |--|
  Multipole moments:                 0.008     0.008   0.0% |
  Pseudo density:                    0.072     0.071   0.1% |
   Symmetrize density:               0.001     0.001   0.0% |
 Hamiltonian:                       36.123     0.004   0.0% |
  Atomic:                            4.106     0.032   0.1% |
   XC Correction:                    4.075     4.075   7.1% |--|
  Calculate atomic Hamiltonians:     0.173     0.173   0.3% |
  Communicate:                       0.000     0.000   0.0% |
  Hartree integrate/restrict:        1.476     1.476   2.6% ||
  Poisson:                          10.635     0.467   0.8% |
   Communicate bwd 0:                1.020     1.020   1.8% ||
   Communicate bwd 1:                0.728     0.728   1.3% ||
   Communicate fwd 0:                0.920     0.920   1.6% ||
   Communicate fwd 1:                1.061     1.061   1.8% ||
   fft:                              1.495     1.495   2.6% ||
   fft2:                             4.945     4.945   8.6% |--|
  XC 3D grid:                       19.462    19.462  33.8% |-------------|
  vbar:                              0.266     0.266   0.5% |
 Orthonormalize:                     0.011     0.000   0.0% |
  calc_s_matrix:                     0.002     0.002   0.0% |
  inverse-cholesky:                  0.001     0.001   0.0% |
  projections:                       0.002     0.002   0.0% |
  rotate_psi_s:                      0.006     0.006   0.0% |
Set symmetry:                        0.001     0.001   0.0% |
Other:                               4.392     4.392   7.6% |--|
-----------------------------------------------------------
Total:                                        57.513 100.0%

Date: Thu Feb 18 16:38:39 2021
