7
Lattice="16.0 0.0 0.0 0.0 16.0 0.0 0.0 0.0 16.0" Properties=species:S:1:pos:R:3:forces:R:3 energy=-7.130860777259814 pbc="F F F"
Na       7.04791842       7.48934962       6.70545021      -0.00179141       0.01887920       0.02843496 
Na       5.49896900       8.66448270       8.82999553      -0.01914109      -0.02151500      -0.00039121 
Na       5.95520087       5.81296431       8.76460067       0.00469378       0.00249848       0.00465591 
Na       7.84258097      10.01998365       7.88704306       0.03888589      -0.00593230      -0.01138939 
Na       8.11974848       7.59455805       9.41012732      -0.01808481      -0.00119940      -0.02985042 
Na       8.37171299       9.48366390       5.11310811      -0.01228325      -0.00078921      -0.00737408 
Na       9.83118879       8.05075432       7.14749135       0.00772089       0.00805823       0.01591423 
