
  ___ ___ ___ _ _ _  
 |   |   |_  | | | | 
 | | | | | . | | | | 
 |__ |  _|___|_____|  19.8.1
 |___|_|             

User:   eliasel@hebbe06-9
Date:   Wed Feb  3 14:23:32 2021
Arch:   x86_64
Pid:    7123
Python: 3.7.2
gpaw:   /apps/Hebbe7/software/MPI/intel/2019.1.144-GCC-8.2.0-2.31.1/impi/2018.4.274/GPAW/19.8.1-Python-3.7.2/lib/python3.7/site-packages/gpaw
_gpaw:  /apps/Hebbe7/software/MPI/intel/2019.1.144-GCC-8.2.0-2.31.1/impi/2018.4.274/GPAW/19.8.1-Python-3.7.2/lib/python3.7/site-packages/
        _gpaw.cpython-37m-x86_64-linux-gnu.so
ase:    /apps/Hebbe7/software/MPI/intel/2019.1.144-GCC-8.2.0-2.31.1/impi/2018.4.274/ASE/3.18.0-Python-3.7.2/lib/python3.7/site-packages/ase (version 3.18.0)
numpy:  /apps/Hebbe7/software/MPI/intel/2019.1.144-GCC-8.2.0-2.31.1/impi/2018.4.274/SciPy-bundle/2019.03/lib/python3.7/site-packages/numpy (version 1.16.2)
scipy:  /apps/Hebbe7/software/MPI/intel/2019.1.144-GCC-8.2.0-2.31.1/impi/2018.4.274/SciPy-bundle/2019.03/lib/python3.7/site-packages/scipy (version 1.2.1)
libxc:  4.3.4
units:  Angstrom and eV
cores:  1

Input parameters:
  basis: dzp
  h: 0.25
  mode: lcao
  nbands: 10
  occupations: {name: fermi-dirac,
                width: 0.05}
  setups: {Na: 1}

System changes: positions, numbers, cell, pbc, initial_charges, initial_magmoms 

Initialize ...

Na-setup:
  name: Sodium
  id: fa5c50181d04022fed15b2593599c257
  Z: 11
  valence: 1
  core: 10
  charge: 0.0
  file: /apps/Hebbe7/software/Core/GPAW-setups/0.9.20000/Na.1.LDA.gz
  compensation charges: gauss, rc=0.43, lmax=2
  cutoffs: 2.36(filt), 3.60(core),
  valence states:
                energy  radius
    3s(1.00)    -2.819   1.349
    3p(0.00)    -0.774   1.349
    *s          24.392   1.349

  LCAO basis set for Na:
    Name: 1.dzp
    File: /apps/Hebbe7/software/Core/GPAW-setups/0.9.20000/Na.1.dzp.basis.gz
    Number of radial functions: 3
    Number of spherical harmonics: 5
      l=0, rc=11.7656 Bohr: 3s-sz confined orbital
      l=0, rc=7.1094 Bohr: 3s-dz split-valence wave
      l=1, rc=11.7656 Bohr: p-type Gaussian polarization

Reference energy: -30790.959854

Spin-paired calculation

Occupation numbers:
  Fermi-Dirac: width=0.0500 eV

Convergence criteria:
  Maximum total energy change: 0.0005 eV / electron
  Maximum integral of absolute density change: 0.0001 electrons
  Maximum integral of absolute eigenstate change: 4e-08 eV^2
  Maximum number of iterations: 333

Symmetries present (total): 1

  ( 1  0  0)
  ( 0  1  0)
  ( 0  0  1)

1 k-point (Gamma)
1 k-point in the irreducible part of the Brillouin zone
       k-points in crystal coordinates                weights
   0:     0.00000000    0.00000000    0.00000000          1/1

Wave functions: LCAO
  Diagonalizer: Serial LAPACK
  Atomic Correction: dense with blas
  Datatype: float
 

Eigensolver
   LCAO using direct dense diagonalizer 

Densities:
  Coarse grid: 64*64*64 grid
  Fine grid: 128*128*128 grid
  Total Charge: 0.000000 

Density mixing:
  Method: separate
  Backend: pulay
  Linear mixing parameter: 0.25
  Mixing with 3 old densities
  No damping of long wave oscillations 

Hamiltonian:
  XC and Coulomb potentials evaluated on a 128*128*128 grid
  Using the LDA Exchange-Correlation functional
  Interpolation: tri-quintic (5. degree polynomial)
  Poisson solver: FastPoissonSolver using
    6*3+1=19 point O(h^6) finite-difference Laplacian stencil;
    FFT axes: [];
    FST axes: [0, 1, 2].
 

Memory estimate:
  Process memory now: 254.23 MiB
  Calculator: 132.36 MiB
    Density: 83.08 MiB
      Arrays: 50.70 MiB
      Localized functions: 20.93 MiB
      Mixer: 11.45 MiB
    Hamiltonian: 34.67 MiB
      Arrays: 33.16 MiB
      XC: 0.00 MiB
      Poisson: 0.00 MiB
      vbar: 1.51 MiB
    Wavefunctions: 14.61 MiB
      C [qnM]: 0.00 MiB
      S, T [2 x qmm]: 0.02 MiB
      P [aqMi]: 0.00 MiB
      BasisFunctions: 14.58 MiB
      Eigensolver: 0.00 MiB

Total number of cores used: 1

Number of atoms: 7
Number of atomic orbitals: 35
Number of bands in calculation: 10
Bands to converge: occupied states only
Number of valence electrons: 7

... initialized

Initializing position-dependent things.

Density initialized from atomic densities
           .--------------------------------------.  
          /|                                      |  
         / |                                      |  
        /  |                                      |  
       /   |                                      |  
      /    |                                      |  
     /     |                                      |  
    /      |                                      |  
   /       |                                      |  
  /        |                                      |  
 *         |                                      |  
 |         |           Na                         |  
 |         |              Na                      |  
 |         |                 Na                   |  
 |         |                                      |  
 |         |           Na                         |  
 |         |                 Na                   |  
 |         |               Na                     |  
 |         |                                      |  
 |         |           Na                         |  
 |         .--------------------------------------.  
 |        /                                      /   
 |       /                                      /    
 |      /                                      /     
 |     /                                      /      
 |    /                                      /       
 |   /                                      /        
 |  /                                      /         
 | /                                      /          
 |/                                      /           
 *--------------------------------------*            

Positions:
   0 Na     9.089486    6.548755    6.846352    ( 0.0000,  0.0000,  0.0000)
   1 Na     6.781511    7.975927    7.800883    ( 0.0000,  0.0000,  0.0000)
   2 Na     7.582144   10.572845    8.719248    ( 0.0000,  0.0000,  0.0000)
   3 Na     8.951779    9.409345    6.480731    ( 0.0000,  0.0000,  0.0000)
   4 Na     6.909711    8.494247   10.622073    ( 0.0000,  0.0000,  0.0000)
   5 Na     7.206864    7.693032    4.976484    ( 0.0000,  0.0000,  0.0000)
   6 Na     9.349511    8.317314    9.105535    ( 0.0000,  0.0000,  0.0000)

Unit cell:
           periodic     x           y           z      points  spacing
  1. axis:    no    16.000000    0.000000    0.000000    64     0.2500
  2. axis:    no     0.000000   16.000000    0.000000    64     0.2500
  3. axis:    no     0.000000    0.000000   16.000000    64     0.2500

  Lengths:  16.000000  16.000000  16.000000
  Angles:   90.000000  90.000000  90.000000

Effective grid spacing dv^(1/3) = 0.2500

                     log10-error:    total        iterations:
           time      wfs    density  energy       fermi  poisson
iter:   1  14:23:36          +inf    -4.518152    4      1      
iter:   2  14:23:38         -0.57    -4.097863    34     1      
iter:   3  14:23:39         -0.88    -3.990561    33     1      
iter:   4  14:23:40         -1.31    -3.976265    4      1      
iter:   5  14:23:41         -1.97    -3.975542    4      1      
iter:   6  14:23:43         -2.34    -3.975416    3      1      
iter:   7  14:23:44         -2.57    -3.975355    3      1      
iter:   8  14:23:45         -3.17    -3.975353    2      1      
iter:   9  14:23:46         -3.35    -3.975352    2      1      
iter:  10  14:23:47         -3.79    -3.975352    2      1      
iter:  11  14:23:49         -4.06    -3.975352    2      1      

Converged after 11 iterations.

Dipole moment: (-0.167266, -0.065577, 0.000721) |e|*Ang

Energy contributions relative to reference atoms: (reference = -30790.959854)

Kinetic:        +58.506491
Potential:      -47.247317
External:        +0.000000
XC:             -15.257189
Entropy (-ST):   -0.111871
Local:           +0.078599
--------------------------
Free energy:     -4.031287
Extrapolated:    -3.975352

Fermi level: -2.80560

 Band  Eigenvalues  Occupancy
    0     -5.35521    2.00000
    1     -3.80949    2.00000
    2     -2.86988    1.56677
    3     -2.85199    1.43323
    4     -1.91263    0.00000
    5     -1.39107    0.00000
    6     -1.21254    0.00000
    7      0.37264    0.00000
    8      0.71268    0.00000
    9      1.80733    0.00000

Gap: 0.939 eV
Transition (v -> c):
  (s=0, k=0, n=3, [0.00, 0.00, 0.00]) -> (s=0, k=0, n=4, [0.00, 0.00, 0.00])

Forces in eV/Ang:
  0 Na    0.63553   -1.11818   -0.02678
  1 Na   -1.26245   -0.48325   -0.00328
  2 Na   -0.25671    1.26177    0.03114
  3 Na    0.73544    0.96764   -0.70280
  4 Na   -0.47519   -0.28589    0.87367
  5 Na   -0.56496   -0.08564   -0.87923
  6 Na    1.18806   -0.25767    0.70736

System changes: positions 

Initializing position-dependent things.

Density initialized from wave functions
           .--------------------------------------.  
          /|                                      |  
         / |                                      |  
        /  |                                      |  
       /   |                                      |  
      /    |                                      |  
     /     |                                      |  
    /      |                                      |  
   /       |                                      |  
  /        |                                      |  
 *         |                                      |  
 |         |           Na                         |  
 |         |              Na                      |  
 |         |                 Na                   |  
 |         |                                      |  
 |         |          Na                          |  
 |         |                 Na                   |  
 |         |               Na                     |  
 |         |                                      |  
 |         |           Na                         |  
 |         .--------------------------------------.  
 |        /                                      /   
 |       /                                      /    
 |      /                                      /     
 |     /                                      /      
 |    /                                      /       
 |   /                                      /        
 |  /                                      /         
 | /                                      /          
 |/                                      /           
 *--------------------------------------*            

Positions:
   0 Na     9.165241    6.415469    6.843160    ( 0.0000,  0.0000,  0.0000)
   1 Na     6.631028    7.918324    7.800492    ( 0.0000,  0.0000,  0.0000)
   2 Na     7.551544   10.723246    8.722960    ( 0.0000,  0.0000,  0.0000)
   3 Na     9.039443    9.524687    6.396958    ( 0.0000,  0.0000,  0.0000)
   4 Na     6.853068    8.460169   10.726214    ( 0.0000,  0.0000,  0.0000)
   5 Na     7.139522    7.682824    4.871680    ( 0.0000,  0.0000,  0.0000)
   6 Na     9.491127    8.286600    9.189851    ( 0.0000,  0.0000,  0.0000)

Unit cell:
           periodic     x           y           z      points  spacing
  1. axis:    no    16.000000    0.000000    0.000000    64     0.2500
  2. axis:    no     0.000000   16.000000    0.000000    64     0.2500
  3. axis:    no     0.000000    0.000000   16.000000    64     0.2500

  Lengths:  16.000000  16.000000  16.000000
  Angles:   90.000000  90.000000  90.000000

Effective grid spacing dv^(1/3) = 0.2500

                     log10-error:    total        iterations:
           time      wfs    density  energy       fermi  poisson
iter:   1  14:23:51          +inf    -4.969807    4      1      
iter:   2  14:23:52         -1.39    -4.961312    3      1      
iter:   3  14:23:53         -1.64    -4.956294    3      1      
iter:   4  14:23:54         -2.12    -4.955362    3      1      
iter:   5  14:23:56         -2.43    -4.955218    3      1      
iter:   6  14:23:57         -2.70    -4.955172    3      1      
iter:   7  14:23:58         -3.31    -4.955169    3      1      
iter:   8  14:23:59         -3.73    -4.955168    2      1      
iter:   9  14:24:01         -3.99    -4.955168    2      1      
iter:  10  14:24:02         -4.39    -4.955168    2      1      

Converged after 10 iterations.

Dipole moment: (-0.155512, -0.061451, 0.000788) |e|*Ang

Energy contributions relative to reference atoms: (reference = -30790.959854)

Kinetic:        +43.360163
Potential:      -35.677742
External:        +0.000000
XC:             -12.637973
Entropy (-ST):   -0.112181
Local:           +0.056474
--------------------------
Free energy:     -5.011258
Extrapolated:    -4.955168

Fermi level: -2.78073

 Band  Eigenvalues  Occupancy
    0     -5.14464    2.00000
    1     -3.69856    2.00000
    2     -2.84204    1.54630
    3     -2.82967    1.45370
    4     -1.85152    0.00000
    5     -1.44976    0.00000
    6     -1.27307    0.00000
    7      0.59653    0.00000
    8      0.85850    0.00000
    9      1.87328    0.00000

Gap: 0.978 eV
Transition (v -> c):
  (s=0, k=0, n=3, [0.00, 0.00, 0.00]) -> (s=0, k=0, n=4, [0.00, 0.00, 0.00])

Forces in eV/Ang:
  0 Na    0.30999   -0.54805   -0.01782
  1 Na   -0.60777   -0.23330   -0.00139
  2 Na   -0.12939    0.61868    0.02051
  3 Na    0.39262    0.44762   -0.32968
  4 Na   -0.25481   -0.14947    0.48569
  5 Na   -0.29956   -0.04622   -0.48954
  6 Na    0.58981   -0.08567    0.33140

System changes: positions 

Initializing position-dependent things.

Density initialized from wave functions
           .--------------------------------------.  
          /|                                      |  
         / |                                      |  
        /  |                                      |  
       /   |                                      |  
      /    |                                      |  
     /     |                                      |  
    /      |                                      |  
   /       |                                      |  
  /        |                                      |  
 *         |                                      |  
 |         |           Na                         |  
 |         |              Na                      |  
 |         |                  Na                  |  
 |         |                                      |  
 |         |          Na                          |  
 |         |                 Na                   |  
 |         |                                      |  
 |         |               Na                     |  
 |         |           Na                         |  
 |         .--------------------------------------.  
 |        /                                      /   
 |       /                                      /    
 |      /                                      /     
 |     /                                      /      
 |    /                                      /       
 |   /                                      /        
 |  /                                      /         
 | /                                      /          
 |/                                      /           
 *--------------------------------------*            

Positions:
   0 Na     9.224898    6.310194    6.840084    ( 0.0000,  0.0000,  0.0000)
   1 Na     6.513470    7.873246    7.800209    ( 0.0000,  0.0000,  0.0000)
   2 Na     7.526953   10.842068    8.726512    ( 0.0000,  0.0000,  0.0000)
   3 Na     9.112484    9.612640    6.332538    ( 0.0000,  0.0000,  0.0000)
   4 Na     6.805742    8.432149   10.815261    ( 0.0000,  0.0000,  0.0000)
   5 Na     7.083655    7.674259    4.781977    ( 0.0000,  0.0000,  0.0000)
   6 Na     9.603868    8.267140    9.254640    ( 0.0000,  0.0000,  0.0000)

Unit cell:
           periodic     x           y           z      points  spacing
  1. axis:    no    16.000000    0.000000    0.000000    64     0.2500
  2. axis:    no     0.000000   16.000000    0.000000    64     0.2500
  3. axis:    no     0.000000    0.000000   16.000000    64     0.2500

  Lengths:  16.000000  16.000000  16.000000
  Angles:   90.000000  90.000000  90.000000

Effective grid spacing dv^(1/3) = 0.2500

                     log10-error:    total        iterations:
           time      wfs    density  energy       fermi  poisson
iter:   1  14:24:04          +inf    -5.345401    4      1      
iter:   2  14:24:05         -1.58    -5.341734    4      1      
iter:   3  14:24:06         -1.87    -5.340222    4      1      
iter:   4  14:24:07         -2.25    -5.339761    3      1      
iter:   5  14:24:09         -2.61    -5.339685    2      1      
iter:   6  14:24:10         -2.93    -5.339669    3      1      
iter:   7  14:24:11         -3.33    -5.339666    3      1      
iter:   8  14:24:12         -3.80    -5.339666    2      1      
iter:   9  14:24:14         -4.13    -5.339665    2      1      

Converged after 9 iterations.

Dipole moment: (-0.141884, -0.056338, 0.000475) |e|*Ang

Energy contributions relative to reference atoms: (reference = -30790.959854)

Kinetic:        +34.107319
Potential:      -28.549934
External:        +0.000000
XC:             -10.884968
Entropy (-ST):   -0.112406
Local:           +0.044120
--------------------------
Free energy:     -5.395869
Extrapolated:    -5.339665

Fermi level: -2.77335

 Band  Eigenvalues  Occupancy
    0     -4.97858    2.00000
    1     -3.61369    2.00000
    2     -2.83117    1.52135
    3     -2.82547    1.47865
    4     -1.82028    0.00000
    5     -1.49944    0.00000
    6     -1.33172    0.00000
    7      0.78626    0.00000
    8      1.01660    0.00000
    9      1.94909    0.00000

Gap: 1.005 eV
Transition (v -> c):
  (s=0, k=0, n=3, [0.00, 0.00, 0.00]) -> (s=0, k=0, n=4, [0.00, 0.00, 0.00])

Forces in eV/Ang:
  0 Na    0.13699   -0.24572   -0.01202
  1 Na   -0.29449   -0.11419    0.00012
  2 Na   -0.05943    0.27485    0.01435
  3 Na    0.20879    0.19119   -0.14368
  4 Na   -0.12840   -0.07039    0.25163
  5 Na   -0.14830   -0.02563   -0.25556
  6 Na    0.28293   -0.01077    0.14177

System changes: positions 

Initializing position-dependent things.

Density initialized from wave functions
           .--------------------------------------.  
          /|                                      |  
         / |                                      |  
        /  |                                      |  
       /   |                                      |  
      /    |                                      |  
     /     |                                      |  
    /      |                                      |  
   /       |                                      |  
  /        |                                      |  
 *         |                                      |  
 |         |           Na                         |  
 |         |              Na                      |  
 |         |                  Na                  |  
 |         |                                      |  
 |         |          Na                          |  
 |         |                 Na                   |  
 |         |                                      |  
 |         |               Na                     |  
 |         |           Na                         |  
 |         .--------------------------------------.  
 |        /                                      /   
 |       /                                      /    
 |      /                                      /     
 |     /                                      /      
 |    /                                      /       
 |   /                                      /        
 |  /                                      /         
 | /                                      /          
 |/                                      /           
 *--------------------------------------*            

Positions:
   0 Na     9.273369    6.224039    6.836777    ( 0.0000,  0.0000,  0.0000)
   1 Na     6.414727    7.835191    7.800091    ( 0.0000,  0.0000,  0.0000)
   2 Na     7.506457   10.938969    8.730390    ( 0.0000,  0.0000,  0.0000)
   3 Na     9.178378    9.682008    6.281108    ( 0.0000,  0.0000,  0.0000)
   4 Na     6.763980    8.408296   10.895632    ( 0.0000,  0.0000,  0.0000)
   5 Na     7.034890    7.666361    4.700707    ( 0.0000,  0.0000,  0.0000)
   6 Na     9.699074    8.257030    9.305974    ( 0.0000,  0.0000,  0.0000)

Unit cell:
           periodic     x           y           z      points  spacing
  1. axis:    no    16.000000    0.000000    0.000000    64     0.2500
  2. axis:    no     0.000000   16.000000    0.000000    64     0.2500
  3. axis:    no     0.000000    0.000000   16.000000    64     0.2500

  Lengths:  16.000000  16.000000  16.000000
  Angles:   90.000000  90.000000  90.000000

Effective grid spacing dv^(1/3) = 0.2500

                     log10-error:    total        iterations:
           time      wfs    density  energy       fermi  poisson
iter:   1  14:24:16          +inf    -5.482651    4      1      
iter:   2  14:24:17         -1.65    -5.480073    4      1      
iter:   3  14:24:18         -1.99    -5.479370    4      1      
iter:   4  14:24:19         -2.32    -5.479150    3      1      
iter:   5  14:24:21         -2.63    -5.479094    3      1      
iter:   6  14:24:22         -3.10    -5.479088    2      1      
iter:   7  14:24:23         -3.48    -5.479088    2      1      
iter:   8  14:24:24         -3.88    -5.479088    2      1      
iter:   9  14:24:26         -4.25    -5.479088    2      1      

Converged after 9 iterations.

Dipole moment: (-0.126274, -0.050027, 0.000170) |e|*Ang

Energy contributions relative to reference atoms: (reference = -30790.959854)

Kinetic:        +27.827414
Potential:      -23.685534
External:        +0.000000
XC:              -9.601677
Entropy (-ST):   -0.112454
Local:           +0.036937
--------------------------
Free energy:     -5.535315
Extrapolated:    -5.479088

Fermi level: -2.77417

 Band  Eigenvalues  Occupancy
    0     -4.84465    2.00000
    1     -3.54657    2.00000
    2     -2.83045    1.51004
    3     -2.82777    1.48996
    4     -1.81044    0.00000
    5     -1.54177    0.00000
    6     -1.38926    0.00000
    7      1.01498    0.00000
    8      1.20285    0.00000
    9      2.03074    0.00000

Gap: 1.017 eV
Transition (v -> c):
  (s=0, k=0, n=3, [0.00, 0.00, 0.00]) -> (s=0, k=0, n=4, [0.00, 0.00, 0.00])

Forces in eV/Ang:
  0 Na    0.03666   -0.06276   -0.00765
  1 Na   -0.12304   -0.04962   -0.00042
  2 Na   -0.01391    0.07313    0.00897
  3 Na    0.09758    0.05167   -0.03520
  4 Na   -0.04958   -0.02167    0.09635
  5 Na   -0.05455   -0.01308   -0.09733
  6 Na    0.10751    0.02368    0.03399

System changes: positions 

Initializing position-dependent things.

Density initialized from wave functions
           .--------------------------------------.  
          /|                                      |  
         / |                                      |  
        /  |                                      |  
       /   |                                      |  
      /    |                                      |  
     /     |                                      |  
    /      |                                      |  
   /       |                                      |  
  /        |                                      |  
 *         |                                      |  
 |         |           Na                         |  
 |         |              Na                      |  
 |         |                  Na                  |  
 |         |                                      |  
 |         |         Na                           |  
 |         |                  Na                  |  
 |         |                                      |  
 |         |                Na                    |  
 |         |           Na                         |  
 |         .--------------------------------------.  
 |        /                                      /   
 |       /                                      /    
 |      /                                      /     
 |     /                                      /      
 |    /                                      /       
 |   /                                      /        
 |  /                                      /         
 | /                                      /          
 |/                                      /           
 *--------------------------------------*            

Positions:
   0 Na     9.302671    6.172104    6.833626    ( 0.0000,  0.0000,  0.0000)
   1 Na     6.345672    7.808143    7.800013    ( 0.0000,  0.0000,  0.0000)
   2 Na     7.494140   10.997649    8.734109    ( 0.0000,  0.0000,  0.0000)
   3 Na     9.228573    9.723103    6.250911    ( 0.0000,  0.0000,  0.0000)
   4 Na     6.734550    8.392894   10.953016    ( 0.0000,  0.0000,  0.0000)
   5 Na     7.001258    7.660054    4.642584    ( 0.0000,  0.0000,  0.0000)
   6 Na     9.763903    8.258178    9.335760    ( 0.0000,  0.0000,  0.0000)

Unit cell:
           periodic     x           y           z      points  spacing
  1. axis:    no    16.000000    0.000000    0.000000    64     0.2500
  2. axis:    no     0.000000   16.000000    0.000000    64     0.2500
  3. axis:    no     0.000000    0.000000   16.000000    64     0.2500

  Lengths:  16.000000  16.000000  16.000000
  Angles:   90.000000  90.000000  90.000000

Effective grid spacing dv^(1/3) = 0.2500

                     log10-error:    total        iterations:
           time      wfs    density  energy       fermi  poisson
iter:   1  14:24:28          +inf    -5.507007    4      1      
iter:   2  14:24:29         -1.75    -5.505379    4      1      
iter:   3  14:24:30         -2.16    -5.505092    3      1      
iter:   4  14:24:31         -2.45    -5.505012    3      1      
iter:   5  14:24:33         -2.75    -5.504988    3      1      
iter:   6  14:24:34         -3.27    -5.504985    2      1      
iter:   7  14:24:35         -3.70    -5.504985    2      1      
iter:   8  14:24:36         -3.96    -5.504985    2      1      
iter:   9  14:24:38         -4.39    -5.504985    2      1      

Converged after 9 iterations.

Dipole moment: (-0.110629, -0.043688, 0.000015) |e|*Ang

Energy contributions relative to reference atoms: (reference = -30790.959854)

Kinetic:        +24.276840
Potential:      -20.923210
External:        +0.000000
XC:              -8.835717
Entropy (-ST):   -0.112178
Local:           +0.033192
--------------------------
Free energy:     -5.561075
Extrapolated:    -5.504985

Fermi level: -2.77740

 Band  Eigenvalues  Occupancy
    0     -4.75958    2.00000
    1     -3.50426    2.00000
    2     -2.83874    1.54655
    3     -2.82630    1.45345
    4     -1.81245    0.00000
    5     -1.56799    0.00000
    6     -1.43161    0.00000
    7      1.22431    0.00000
    8      1.36245    0.00000
    9      2.08873    0.00000

Gap: 1.014 eV
Transition (v -> c):
  (s=0, k=0, n=3, [0.00, 0.00, 0.00]) -> (s=0, k=0, n=4, [0.00, 0.00, 0.00])

Forces in eV/Ang:
  0 Na   -0.01139    0.02925   -0.00527
  1 Na   -0.04613   -0.01949   -0.00054
  2 Na    0.01112   -0.02716    0.00642
  3 Na    0.04131   -0.01316    0.01641
  4 Na   -0.00949    0.00232    0.00800
  5 Na   -0.00689   -0.00666   -0.00879
  6 Na    0.02099    0.03685   -0.01750

System changes: positions 

Initializing position-dependent things.

Density initialized from wave functions
           .--------------------------------------.  
          /|                                      |  
         / |                                      |  
        /  |                                      |  
       /   |                                      |  
      /    |                                      |  
     /     |                                      |  
    /      |                                      |  
   /       |                                      |  
  /        |                                      |  
 *         |                                      |  
 |         |           Na                         |  
 |         |              Na                      |  
 |         |                  Na                  |  
 |         |                                      |  
 |         |         Na                           |  
 |         |                  Na                  |  
 |         |                                      |  
 |         |                Na                    |  
 |         |           Na                         |  
 |         .--------------------------------------.  
 |        /                                      /   
 |       /                                      /    
 |      /                                      /     
 |     /                                      /      
 |    /                                      /       
 |   /                                      /        
 |  /                                      /         
 | /                                      /          
 |/                                      /           
 *--------------------------------------*            

Positions:
   0 Na     9.304399    6.170172    6.832552    ( 0.0000,  0.0000,  0.0000)
   1 Na     6.331878    7.802537    7.799938    ( 0.0000,  0.0000,  0.0000)
   2 Na     7.494202   11.000578    8.735402    ( 0.0000,  0.0000,  0.0000)
   3 Na     9.239817    9.725818    6.249770    ( 0.0000,  0.0000,  0.0000)
   4 Na     6.729920    8.391463   10.960789    ( 0.0000,  0.0000,  0.0000)
   5 Na     6.996503    7.658443    4.634619    ( 0.0000,  0.0000,  0.0000)
   6 Na     9.773977    8.263389    9.336694    ( 0.0000,  0.0000,  0.0000)

Unit cell:
           periodic     x           y           z      points  spacing
  1. axis:    no    16.000000    0.000000    0.000000    64     0.2500
  2. axis:    no     0.000000   16.000000    0.000000    64     0.2500
  3. axis:    no     0.000000    0.000000   16.000000    64     0.2500

  Lengths:  16.000000  16.000000  16.000000
  Angles:   90.000000  90.000000  90.000000

Effective grid spacing dv^(1/3) = 0.2500

                     log10-error:    total        iterations:
           time      wfs    density  energy       fermi  poisson
iter:   1  14:24:40          +inf    -5.506718    3      1      
iter:   2  14:24:41         -2.25    -5.506484    3      1      
iter:   3  14:24:42         -2.91    -5.506464    3      1      
iter:   4  14:24:43         -3.21    -5.506460    3      1      
iter:   5  14:24:45         -3.56    -5.506460    2      1      
iter:   6  14:24:46         -3.85    -5.506459    2      1      
iter:   7  14:24:47         -4.32    -5.506459    2      1      

Converged after 7 iterations.

Dipole moment: (-0.104959, -0.041415, 0.000044) |e|*Ang

Energy contributions relative to reference atoms: (reference = -30790.959854)

Kinetic:        +23.893569
Potential:      -20.625835
External:        +0.000000
XC:              -8.750960
Entropy (-ST):   -0.111917
Local:           +0.032725
--------------------------
Free energy:     -5.562418
Extrapolated:    -5.506459

Fermi level: -2.77786

 Band  Eigenvalues  Occupancy
    0     -4.74892    2.00000
    1     -3.49867    2.00000
    2     -2.84176    1.56421
    3     -2.82457    1.43579
    4     -1.81189    0.00000
    5     -1.56934    0.00000
    6     -1.43773    0.00000
    7      1.25406    0.00000
    8      1.38426    0.00000
    9      2.09109    0.00000

Gap: 1.013 eV
Transition (v -> c):
  (s=0, k=0, n=3, [0.00, 0.00, 0.00]) -> (s=0, k=0, n=4, [0.00, 0.00, 0.00])

Forces in eV/Ang:
  0 Na   -0.01591    0.03812   -0.00615
  1 Na   -0.03920   -0.01646   -0.00028
  2 Na    0.01375   -0.03736    0.00695
  3 Na    0.03630   -0.01969    0.01991
  4 Na   -0.00574    0.00438   -0.00360
  5 Na   -0.00236   -0.00603    0.00268
  6 Na    0.01269    0.03896   -0.02075

System changes: positions 

Initializing position-dependent things.

Density initialized from wave functions
           .--------------------------------------.  
          /|                                      |  
         / |                                      |  
        /  |                                      |  
       /   |                                      |  
      /    |                                      |  
     /     |                                      |  
    /      |                                      |  
   /       |                                      |  
  /        |                                      |  
 *         |                                      |  
 |         |           Na                         |  
 |         |              Na                      |  
 |         |                  Na                  |  
 |         |                                      |  
 |         |         Na                           |  
 |         |                  Na                  |  
 |         |                                      |  
 |         |                Na                    |  
 |         |           Na                         |  
 |         .--------------------------------------.  
 |        /                                      /   
 |       /                                      /    
 |      /                                      /     
 |     /                                      /      
 |    /                                      /       
 |   /                                      /        
 |  /                                      /         
 | /                                      /          
 |/                                      /           
 *--------------------------------------*            

Positions:
   0 Na     9.289881    6.207117    6.825005    ( 0.0000,  0.0000,  0.0000)
   1 Na     6.276186    7.779273    7.799555    ( 0.0000,  0.0000,  0.0000)
   2 Na     7.508262   10.965470    8.744035    ( 0.0000,  0.0000,  0.0000)
   3 Na     9.290257    9.708296    6.269182    ( 0.0000,  0.0000,  0.0000)
   4 Na     6.718570    8.394326   10.966982    ( 0.0000,  0.0000,  0.0000)
   5 Na     6.988478    7.650360    4.627291    ( 0.0000,  0.0000,  0.0000)
   6 Na     9.798570    8.309835    9.316139    ( 0.0000,  0.0000,  0.0000)

Unit cell:
           periodic     x           y           z      points  spacing
  1. axis:    no    16.000000    0.000000    0.000000    64     0.2500
  2. axis:    no     0.000000   16.000000    0.000000    64     0.2500
  3. axis:    no     0.000000    0.000000   16.000000    64     0.2500

  Lengths:  16.000000  16.000000  16.000000
  Angles:   90.000000  90.000000  90.000000

Effective grid spacing dv^(1/3) = 0.2500

                     log10-error:    total        iterations:
           time      wfs    density  energy       fermi  poisson
iter:   1  14:24:49          +inf    -5.525453    3      1      
iter:   2  14:24:50         -1.50    -5.520216    3      1      
iter:   3  14:24:52         -2.10    -5.519575    3      1      
iter:   4  14:24:53         -2.57    -5.519528    3      1      
iter:   5  14:24:54         -3.06    -5.519503    2      1      
iter:   6  14:24:55         -3.31    -5.519503    2      1      
iter:   7  14:24:57         -3.55    -5.519507    2      1      
iter:   8  14:24:58         -4.04    -5.519508    2      1      

Converged after 8 iterations.

Dipole moment: (-0.069378, -0.027313, 0.000297) |e|*Ang

Energy contributions relative to reference atoms: (reference = -30790.959854)

Kinetic:        +23.922100
Potential:      -20.662181
External:        +0.000000
XC:              -8.758155
Entropy (-ST):   -0.107709
Local:           +0.032583
--------------------------
Free energy:     -5.573362
Extrapolated:    -5.519508

Fermi level: -2.77532

 Band  Eigenvalues  Occupancy
    0     -4.73847    2.00000
    1     -3.49143    2.00000
    2     -2.85957    1.68714
    3     -2.80769    1.31286
    4     -1.79863    0.00000
    5     -1.55398    0.00000
    6     -1.44873    0.00000
    7      1.27907    0.00000
    8      1.39569    0.00000
    9      2.04929    0.00000

Gap: 1.009 eV
Transition (v -> c):
  (s=0, k=0, n=3, [0.00, 0.00, 0.00]) -> (s=0, k=0, n=4, [0.00, 0.00, 0.00])

Forces in eV/Ang:
  0 Na   -0.01540    0.03364   -0.01371
  1 Na   -0.04408   -0.01697    0.00098
  2 Na    0.01177   -0.03501    0.01228
  3 Na    0.04197   -0.01890    0.00154
  4 Na   -0.00806   -0.00005   -0.02125
  5 Na   -0.00570   -0.00485    0.02084
  6 Na    0.01748    0.04343   -0.00228

System changes: positions 

Initializing position-dependent things.

Density initialized from wave functions
           .--------------------------------------.  
          /|                                      |  
         / |                                      |  
        /  |                                      |  
       /   |                                      |  
      /    |                                      |  
     /     |                                      |  
    /      |                                      |  
   /       |                                      |  
  /        |                                      |  
 *         |                                      |  
 |         |           Na                         |  
 |         |              Na                      |  
 |         |                  Na                  |  
 |         |                                      |  
 |         |         Na                           |  
 |         |                  Na                  |  
 |         |                                      |  
 |         |                Na                    |  
 |         |           Na                         |  
 |         .--------------------------------------.  
 |        /                                      /   
 |       /                                      /    
 |      /                                      /     
 |     /                                      /      
 |    /                                      /       
 |   /                                      /        
 |  /                                      /         
 | /                                      /          
 |/                                      /           
 *--------------------------------------*            

Positions:
   0 Na     9.271883    6.249384    6.815841    ( 0.0000,  0.0000,  0.0000)
   1 Na     6.228316    7.759518    7.799538    ( 0.0000,  0.0000,  0.0000)
   2 Na     7.523400   10.923605    8.753581    ( 0.0000,  0.0000,  0.0000)
   3 Na     9.335177    9.685991    6.287271    ( 0.0000,  0.0000,  0.0000)
   4 Na     6.710608    8.397992   10.960186    ( 0.0000,  0.0000,  0.0000)
   5 Na     6.984102    7.643493    4.633173    ( 0.0000,  0.0000,  0.0000)
   6 Na     9.815826    8.356772    9.297044    ( 0.0000,  0.0000,  0.0000)

Unit cell:
           periodic     x           y           z      points  spacing
  1. axis:    no    16.000000    0.000000    0.000000    64     0.2500
  2. axis:    no     0.000000   16.000000    0.000000    64     0.2500
  3. axis:    no     0.000000    0.000000   16.000000    64     0.2500

  Lengths:  16.000000  16.000000  16.000000
  Angles:   90.000000  90.000000  90.000000

Effective grid spacing dv^(1/3) = 0.2500

                     log10-error:    total        iterations:
           time      wfs    density  energy       fermi  poisson
iter:   1  14:25:00          +inf    -5.538608    3      1      
iter:   2  14:25:01         -1.63    -5.534864    3      1      
iter:   3  14:25:02         -2.09    -5.533876    3      1      
iter:   4  14:25:03         -2.60    -5.533841    2      1      
iter:   5  14:25:05         -3.10    -5.533795    2      1      
iter:   6  14:25:06         -3.37    -5.533794    2      1      
iter:   7  14:25:07         -3.58    -5.533806    2      1      
iter:   8  14:25:08         -4.23    -5.533806    2      1      

Converged after 8 iterations.

Dipole moment: (-0.038169, -0.014877, 0.000353) |e|*Ang

Energy contributions relative to reference atoms: (reference = -30790.959854)

Kinetic:        +24.478047
Potential:      -21.118204
External:        +0.000000
XC:              -8.876561
Entropy (-ST):   -0.100038
Local:           +0.032930
--------------------------
Free energy:     -5.583825
Extrapolated:    -5.533806

Fermi level: -2.76691

 Band  Eigenvalues  Occupancy
    0     -4.73695    2.00000
    1     -3.49039    2.00000
    2     -2.87607    1.79745
    3     -2.78745    1.20255
    4     -1.78226    0.00000
    5     -1.53533    0.00000
    6     -1.45637    0.00000
    7      1.28300    0.00000
    8      1.38401    0.00000
    9      2.00460    0.00000

Gap: 1.005 eV
Transition (v -> c):
  (s=0, k=0, n=3, [0.00, 0.00, 0.00]) -> (s=0, k=0, n=4, [0.00, 0.00, 0.00])

Forces in eV/Ang:
  0 Na   -0.00994    0.01587   -0.01538
  1 Na   -0.05436   -0.02024    0.00137
  2 Na    0.00525   -0.02022    0.01222
  3 Na    0.05254   -0.00224   -0.02248
  4 Na   -0.01479   -0.00778   -0.02289
  5 Na   -0.01491   -0.00378    0.02329
  6 Na    0.03547    0.03950    0.02110

System changes: positions 

Initializing position-dependent things.

Density initialized from wave functions
           .--------------------------------------.  
          /|                                      |  
         / |                                      |  
        /  |                                      |  
       /   |                                      |  
      /    |                                      |  
     /     |                                      |  
    /      |                                      |  
   /       |                                      |  
  /        |                                      |  
 *         |                                      |  
 |         |           Na                         |  
 |         |              Na                      |  
 |         |                  Na                  |  
 |         |                                      |  
 |         |         Na                           |  
 |         |                  Na                  |  
 |         |                                      |  
 |         |               Na                     |  
 |         |           Na                         |  
 |         .--------------------------------------.  
 |        /                                      /   
 |       /                                      /    
 |      /                                      /     
 |     /                                      /      
 |    /                                      /       
 |   /                                      /        
 |  /                                      /         
 | /                                      /          
 |/                                      /           
 *--------------------------------------*            

Positions:
   0 Na     9.252078    6.294495    6.800481    ( 0.0000,  0.0000,  0.0000)
   1 Na     6.154606    7.730057    7.800056    ( 0.0000,  0.0000,  0.0000)
   2 Na     7.539898   10.877747    8.768173    ( 0.0000,  0.0000,  0.0000)
   3 Na     9.403812    9.665330    6.295152    ( 0.0000,  0.0000,  0.0000)
   4 Na     6.694946    8.397750   10.948637    ( 0.0000,  0.0000,  0.0000)
   5 Na     6.971762    7.634650    4.643846    ( 0.0000,  0.0000,  0.0000)
   6 Na     9.851021    8.419250    9.287644    ( 0.0000,  0.0000,  0.0000)

Unit cell:
           periodic     x           y           z      points  spacing
  1. axis:    no    16.000000    0.000000    0.000000    64     0.2500
  2. axis:    no     0.000000   16.000000    0.000000    64     0.2500
  3. axis:    no     0.000000    0.000000   16.000000    64     0.2500

  Lengths:  16.000000  16.000000  16.000000
  Angles:   90.000000  90.000000  90.000000

Effective grid spacing dv^(1/3) = 0.2500

                     log10-error:    total        iterations:
           time      wfs    density  energy       fermi  poisson
iter:   1  14:25:10          +inf    -5.558065    3      1      
iter:   2  14:25:12         -1.78    -5.556107    3      1      
iter:   3  14:25:13         -2.06    -5.554960    3      1      
iter:   4  14:25:14         -2.56    -5.554895    2      1      
iter:   5  14:25:15         -3.10    -5.554863    2      1      
iter:   6  14:25:17         -3.33    -5.554859    2      1      
iter:   7  14:25:18         -3.64    -5.554877    2      1      
iter:   8  14:25:19         -4.27    -5.554878    2      1      

Converged after 8 iterations.

Dipole moment: (-0.004880, -0.001668, 0.000190) |e|*Ang

Energy contributions relative to reference atoms: (reference = -30790.959854)

Kinetic:        +24.802295
Potential:      -21.411536
External:        +0.000000
XC:              -8.935313
Entropy (-ST):   -0.086261
Local:           +0.032805
--------------------------
Free energy:     -5.598009
Extrapolated:    -5.554878

Fermi level: -2.74534

 Band  Eigenvalues  Occupancy
    0     -4.72021    2.00000
    1     -3.48511    2.00000
    2     -2.90223    1.91685
    3     -2.75367    1.08315
    4     -1.75840    0.00000
    5     -1.51617    0.00000
    6     -1.47824    0.00000
    7      1.34035    0.00000
    8      1.39145    0.00000
    9      1.96213    0.00000

Gap: 0.995 eV
Transition (v -> c):
  (s=0, k=0, n=3, [0.00, 0.00, 0.00]) -> (s=0, k=0, n=4, [0.00, 0.00, 0.00])

Forces in eV/Ang:
  0 Na   -0.00883    0.00427   -0.00399
  1 Na   -0.05577   -0.02032    0.00062
  2 Na   -0.00156   -0.01116   -0.00027
  3 Na    0.05422    0.01800   -0.03791
  4 Na   -0.01598   -0.01586   -0.02481
  5 Na   -0.02058    0.00131    0.02705
  6 Na    0.05032    0.02538    0.03686

System changes: positions 

Initializing position-dependent things.

Density initialized from wave functions
           .--------------------------------------.  
          /|                                      |  
         / |                                      |  
        /  |                                      |  
       /   |                                      |  
      /    |                                      |  
     /     |                                      |  
    /      |                                      |  
   /       |                                      |  
  /        |                                      |  
 *         |                                      |  
 |         |           Na                         |  
 |         |              Na                      |  
 |         |                  Na                  |  
 |         |                                      |  
 |         |         Na                           |  
 |         |                  Na                  |  
 |         |                                      |  
 |         |               Na                     |  
 |         |           Na                         |  
 |         .--------------------------------------.  
 |        /                                      /   
 |       /                                      /    
 |      /                                      /     
 |     /                                      /      
 |    /                                      /       
 |   /                                      /        
 |  /                                      /         
 | /                                      /          
 |/                                      /           
 *--------------------------------------*            

Positions:
   0 Na     9.236865    6.325039    6.788606    ( 0.0000,  0.0000,  0.0000)
   1 Na     6.087803    7.704001    7.800645    ( 0.0000,  0.0000,  0.0000)
   2 Na     7.550345   10.844854    8.778258    ( 0.0000,  0.0000,  0.0000)
   3 Na     9.466330    9.657105    6.288709    ( 0.0000,  0.0000,  0.0000)
   4 Na     6.679318    8.392727   10.934147    ( 0.0000,  0.0000,  0.0000)
   5 Na     6.956983    7.628976    4.658352    ( 0.0000,  0.0000,  0.0000)
   6 Na     9.890097    8.468707    9.292810    ( 0.0000,  0.0000,  0.0000)

Unit cell:
           periodic     x           y           z      points  spacing
  1. axis:    no    16.000000    0.000000    0.000000    64     0.2500
  2. axis:    no     0.000000   16.000000    0.000000    64     0.2500
  3. axis:    no     0.000000    0.000000   16.000000    64     0.2500

  Lengths:  16.000000  16.000000  16.000000
  Angles:   90.000000  90.000000  90.000000

Effective grid spacing dv^(1/3) = 0.2500

                     log10-error:    total        iterations:
           time      wfs    density  energy       fermi  poisson
iter:   1  14:25:21          +inf    -5.571702    3      1      
iter:   2  14:25:22         -2.21    -5.571574    3      1      
iter:   3  14:25:23         -2.45    -5.571509    3      1      
iter:   4  14:25:25         -2.85    -5.571474    2      1      
iter:   5  14:25:26         -3.49    -5.571470    2      1      
iter:   6  14:25:27         -3.71    -5.571469    2      1      
iter:   7  14:25:28         -4.27    -5.571471    2      1      

Converged after 7 iterations.

Dipole moment: (0.008727, 0.003687, -0.000029) |e|*Ang

Energy contributions relative to reference atoms: (reference = -30790.959854)

Kinetic:        +24.757615
Potential:      -21.413515
External:        +0.000000
XC:              -8.909749
Entropy (-ST):   -0.076476
Local:           +0.032416
--------------------------
Free energy:     -5.609709
Extrapolated:    -5.571471

Fermi level: -2.71761

 Band  Eigenvalues  Occupancy
    0     -4.69893    2.00000
    1     -3.47847    2.00000
    2     -2.93178    1.97279
    3     -2.72033    1.02721
    4     -1.73818    0.00000
    5     -1.50769    0.00000
    6     -1.50253    0.00000
    7      1.40879    0.00000
    8      1.41929    0.00000
    9      1.93597    0.00000

Gap: 0.982 eV
Transition (v -> c):
  (s=0, k=0, n=3, [0.00, 0.00, 0.00]) -> (s=0, k=0, n=4, [0.00, 0.00, 0.00])

Forces in eV/Ang:
  0 Na   -0.00920   -0.00064    0.01652
  1 Na   -0.04818   -0.01725    0.00037
  2 Na   -0.00694   -0.00618   -0.02095
  3 Na    0.04181    0.03029   -0.03688
  4 Na   -0.00791   -0.02183   -0.02343
  5 Na   -0.01845    0.01134    0.02635
  6 Na    0.05060    0.00549    0.03618

System changes: positions 

Initializing position-dependent things.

Density initialized from wave functions
           .--------------------------------------.  
          /|                                      |  
         / |                                      |  
        /  |                                      |  
       /   |                                      |  
      /    |                                      |  
     /     |                                      |  
    /      |                                      |  
   /       |                                      |  
  /        |                                      |  
 *         |                                      |  
 |         |          Na                          |  
 |         |              Na                      |  
 |         |                   Na                 |  
 |         |                                      |  
 |         |        Na                            |  
 |         |                  Na                  |  
 |         |                                      |  
 |         |               Na                     |  
 |         |           Na                         |  
 |         .--------------------------------------.  
 |        /                                      /   
 |       /                                      /    
 |      /                                      /     
 |     /                                      /      
 |    /                                      /       
 |   /                                      /        
 |  /                                      /         
 | /                                      /          
 |/                                      /           
 *--------------------------------------*            

Positions:
   0 Na     9.223112    6.346259    6.785175    ( 0.0000,  0.0000,  0.0000)
   1 Na     6.021467    7.678674    7.801227    ( 0.0000,  0.0000,  0.0000)
   2 Na     7.555433   10.819664    8.778851    ( 0.0000,  0.0000,  0.0000)
   3 Na     9.527163    9.661910    6.270694    ( 0.0000,  0.0000,  0.0000)
   4 Na     6.664641    8.381385   10.916222    ( 0.0000,  0.0000,  0.0000)
   5 Na     6.939320    7.628513    4.677268    ( 0.0000,  0.0000,  0.0000)
   6 Na     9.936892    8.506965    9.309654    ( 0.0000,  0.0000,  0.0000)

Unit cell:
           periodic     x           y           z      points  spacing
  1. axis:    no    16.000000    0.000000    0.000000    64     0.2500
  2. axis:    no     0.000000   16.000000    0.000000    64     0.2500
  3. axis:    no     0.000000    0.000000   16.000000    64     0.2500

  Lengths:  16.000000  16.000000  16.000000
  Angles:   90.000000  90.000000  90.000000

Effective grid spacing dv^(1/3) = 0.2500

                     log10-error:    total        iterations:
           time      wfs    density  energy       fermi  poisson
iter:   1  14:25:30          +inf    -5.583692    3      1      
iter:   2  14:25:32         -2.06    -5.583523    2      1      
iter:   3  14:25:33         -2.32    -5.583544    2      1      
iter:   4  14:25:34         -2.78    -5.583558    2      1      
iter:   5  14:25:35         -3.19    -5.583559    2      1      
iter:   6  14:25:37         -3.50    -5.583558    2      1      
iter:   7  14:25:38         -4.02    -5.583557    2      1      

Converged after 7 iterations.

Dipole moment: (0.012398, 0.005149, -0.000114) |e|*Ang

Energy contributions relative to reference atoms: (reference = -30790.959854)

Kinetic:        +24.346571
Potential:      -21.121828
External:        +0.000000
XC:              -8.803957
Entropy (-ST):   -0.072034
Local:           +0.031674
--------------------------
Free energy:     -5.619574
Extrapolated:    -5.583557

Fermi level: -2.69128

 Band  Eigenvalues  Occupancy
    0     -4.67362    2.00000
    1     -3.46681    2.00000
    2     -2.96459    1.99158
    3     -2.69212    1.00842
    4     -1.71905    0.00000
    5     -1.53845    0.00000
    6     -1.49669    0.00000
    7      1.43869    0.00000
    8      1.51499    0.00000
    9      1.92153    0.00000

Gap: 0.973 eV
Transition (v -> c):
  (s=0, k=0, n=3, [0.00, 0.00, 0.00]) -> (s=0, k=0, n=4, [0.00, 0.00, 0.00])

Forces in eV/Ang:
  0 Na   -0.01119    0.00316    0.03804
  1 Na   -0.03601   -0.01338    0.00012
  2 Na   -0.00831   -0.00957   -0.04113
  3 Na    0.02159    0.02953   -0.02097
  4 Na    0.00812   -0.02398   -0.02076
  5 Na   -0.00845    0.02375    0.02327
  6 Na    0.03644   -0.00884    0.01970

System changes: positions 

Initializing position-dependent things.

Density initialized from wave functions
           .--------------------------------------.  
          /|                                      |  
         / |                                      |  
        /  |                                      |  
       /   |                                      |  
      /    |                                      |  
     /     |                                      |  
    /      |                                      |  
   /       |                                      |  
  /        |                                      |  
 *         |                                      |  
 |         |          Na                          |  
 |         |              Na                      |  
 |         |                   Na                 |  
 |         |                                      |  
 |         |        Na                            |  
 |         |                  Na                  |  
 |         |                                      |  
 |         |               Na                     |  
 |         |           Na                         |  
 |         .--------------------------------------.  
 |        /                                      /   
 |       /                                      /    
 |      /                                      /     
 |     /                                      /      
 |    /                                      /       
 |   /                                      /        
 |  /                                      /         
 | /                                      /          
 |/                                      /           
 *--------------------------------------*            

Positions:
   0 Na     9.207964    6.363488    6.796887    ( 0.0000,  0.0000,  0.0000)
   1 Na     5.954477    7.653328    7.801738    ( 0.0000,  0.0000,  0.0000)
   2 Na     7.555879   10.796560    8.763521    ( 0.0000,  0.0000,  0.0000)
   3 Na     9.584548    9.678269    6.246412    ( 0.0000,  0.0000,  0.0000)
   4 Na     6.655561    8.362638   10.893143    ( 0.0000,  0.0000,  0.0000)
   5 Na     6.921387    7.637264    4.702233    ( 0.0000,  0.0000,  0.0000)
   6 Na     9.989380    8.533667    9.332540    ( 0.0000,  0.0000,  0.0000)

Unit cell:
           periodic     x           y           z      points  spacing
  1. axis:    no    16.000000    0.000000    0.000000    64     0.2500
  2. axis:    no     0.000000   16.000000    0.000000    64     0.2500
  3. axis:    no     0.000000    0.000000   16.000000    64     0.2500

  Lengths:  16.000000  16.000000  16.000000
  Angles:   90.000000  90.000000  90.000000

Effective grid spacing dv^(1/3) = 0.2500

                     log10-error:    total        iterations:
           time      wfs    density  energy       fermi  poisson
iter:   1  14:25:40          +inf    -5.593124    3      1      
iter:   2  14:25:41         -2.02    -5.592772    2      1      
iter:   3  14:25:42         -2.27    -5.592706    2      1      
iter:   4  14:25:44         -2.71    -5.592710    2      1      
iter:   5  14:25:45         -3.11    -5.592711    2      1      
iter:   6  14:25:46         -3.38    -5.592711    2      1      
iter:   7  14:25:47         -3.92    -5.592711    2      1      
iter:   8  14:25:49         -4.15    -5.592711    2      1      

Converged after 8 iterations.

Dipole moment: (0.015722, 0.006578, -0.000035) |e|*Ang

Energy contributions relative to reference atoms: (reference = -30790.959854)

Kinetic:        +23.779814
Potential:      -20.700874
External:        +0.000000
XC:              -8.667513
Entropy (-ST):   -0.070500
Local:           +0.031111
--------------------------
Free energy:     -5.627961
Extrapolated:    -5.592711

Fermi level: -2.67532

 Band  Eigenvalues  Occupancy
    0     -4.64919    2.00000
    1     -3.44781    2.00000
    2     -2.99735    1.99681
    3     -2.67563    1.00319
    4     -1.69932    0.00000
    5     -1.56889    0.00000
    6     -1.49001    0.00000
    7      1.47673    0.00000
    8      1.60872    0.00000
    9      1.91589    0.00000

Gap: 0.976 eV
Transition (v -> c):
  (s=0, k=0, n=3, [0.00, 0.00, 0.00]) -> (s=0, k=0, n=4, [0.00, 0.00, 0.00])

Forces in eV/Ang:
  0 Na   -0.01519    0.01359    0.05050
  1 Na   -0.02625   -0.01070    0.00036
  2 Na   -0.00602   -0.02072   -0.05203
  3 Na    0.00424    0.01517    0.00326
  4 Na    0.02616   -0.02113   -0.01755
  5 Na    0.00566    0.03400    0.01850
  6 Na    0.01371   -0.01028   -0.00385

System changes: positions 

Initializing position-dependent things.

Density initialized from wave functions
           .--------------------------------------.  
          /|                                      |  
         / |                                      |  
        /  |                                      |  
       /   |                                      |  
      /    |                                      |  
     /     |                                      |  
    /      |                                      |  
   /       |                                      |  
  /        |                                      |  
 *         |                                      |  
 |         |          Na                          |  
 |         |              Na                      |  
 |         |                   Na                 |  
 |         |                                      |  
 |         |        Na                            |  
 |         |                   Na                 |  
 |         |               Na                     |  
 |         |                                      |  
 |         |           Na                         |  
 |         .--------------------------------------.  
 |        /                                      /   
 |       /                                      /    
 |      /                                      /     
 |     /                                      /      
 |    /                                      /       
 |   /                                      /        
 |  /                                      /         
 | /                                      /          
 |/                                      /           
 *--------------------------------------*            

Positions:
   0 Na     9.190977    6.380606    6.825904    ( 0.0000,  0.0000,  0.0000)
   1 Na     5.897339    7.631525    7.802216    ( 0.0000,  0.0000,  0.0000)
   2 Na     7.553332   10.772222    8.731144    ( 0.0000,  0.0000,  0.0000)
   3 Na     9.626567    9.697398    6.228751    ( 0.0000,  0.0000,  0.0000)
   4 Na     6.659381    8.340369   10.868253    ( 0.0000,  0.0000,  0.0000)
   5 Na     6.910578    7.657260    4.729043    ( 0.0000,  0.0000,  0.0000)
   6 Na    10.032839    8.547139    9.348971    ( 0.0000,  0.0000,  0.0000)

Unit cell:
           periodic     x           y           z      points  spacing
  1. axis:    no    16.000000    0.000000    0.000000    64     0.2500
  2. axis:    no     0.000000   16.000000    0.000000    64     0.2500
  3. axis:    no     0.000000    0.000000   16.000000    64     0.2500

  Lengths:  16.000000  16.000000  16.000000
  Angles:   90.000000  90.000000  90.000000

Effective grid spacing dv^(1/3) = 0.2500

                     log10-error:    total        iterations:
           time      wfs    density  energy       fermi  poisson
iter:   1  14:25:51          +inf    -5.601170    2      1      
iter:   2  14:25:52         -2.12    -5.600962    2      1      
iter:   3  14:25:53         -2.36    -5.600902    2      1      
iter:   4  14:25:54         -2.80    -5.600901    2      1      
iter:   5  14:25:55         -3.18    -5.600901    2      1      
iter:   6  14:25:57         -3.49    -5.600901    1      1      
iter:   7  14:25:58         -3.99    -5.600901    2      1      
iter:   8  14:25:59         -4.22    -5.600901    2      1      

Converged after 8 iterations.

Dipole moment: (0.021832, 0.009211, 0.000118) |e|*Ang

Energy contributions relative to reference atoms: (reference = -30790.959854)

Kinetic:        +23.462688
Potential:      -20.467509
External:        +0.000000
XC:              -8.591771
Entropy (-ST):   -0.070054
Local:           +0.030719
--------------------------
Free energy:     -5.635928
Extrapolated:    -5.600901

Fermi level: -2.67519

 Band  Eigenvalues  Occupancy
    0     -4.63666    2.00000
    1     -3.42509    2.00000
    2     -3.02441    1.99815
    3     -2.67538    1.00185
    4     -1.68290    0.00000
    5     -1.58646    0.00000
    6     -1.47871    0.00000
    7      1.51105    0.00000
    8      1.65789    0.00000
    9      1.91402    0.00000

Gap: 0.992 eV
Transition (v -> c):
  (s=0, k=0, n=3, [0.00, 0.00, 0.00]) -> (s=0, k=0, n=4, [0.00, 0.00, 0.00])

Forces in eV/Ang:
  0 Na   -0.02122    0.02119    0.04934
  1 Na   -0.02518   -0.01085    0.00030
  2 Na   -0.00620   -0.03108   -0.04913
  3 Na   -0.00179   -0.00200    0.01530
  4 Na    0.04086   -0.01538   -0.01416
  5 Na    0.01939    0.03967    0.01236
  6 Na   -0.00333   -0.00185   -0.01486

System changes: positions 

Initializing position-dependent things.

Density initialized from wave functions
           .--------------------------------------.  
          /|                                      |  
         / |                                      |  
        /  |                                      |  
       /   |                                      |  
      /    |                                      |  
     /     |                                      |  
    /      |                                      |  
   /       |                                      |  
  /        |                                      |  
 *         |                                      |  
 |         |          Na                          |  
 |         |              Na                      |  
 |         |                   Na                 |  
 |         |                                      |  
 |         |        Na                            |  
 |         |                   Na                 |  
 |         |               Na                     |  
 |         |                                      |  
 |         |           Na                         |  
 |         .--------------------------------------.  
 |        /                                      /   
 |       /                                      /    
 |      /                                      /     
 |     /                                      /      
 |    /                                      /       
 |   /                                      /        
 |  /                                      /         
 | /                                      /          
 |/                                      /           
 *--------------------------------------*            

Positions:
   0 Na     9.163092    6.408181    6.882624    ( 0.0000,  0.0000,  0.0000)
   1 Na     5.830822    7.605574    7.802805    ( 0.0000,  0.0000,  0.0000)
   2 Na     7.547143   10.732363    8.671106    ( 0.0000,  0.0000,  0.0000)
   3 Na     9.664311    9.716926    6.218969    ( 0.0000,  0.0000,  0.0000)
   4 Na     6.685248    8.309693   10.834789    ( 0.0000,  0.0000,  0.0000)
   5 Na     6.910296    7.698636    4.763732    ( 0.0000,  0.0000,  0.0000)
   6 Na    10.073278    8.556238    9.357686    ( 0.0000,  0.0000,  0.0000)

Unit cell:
           periodic     x           y           z      points  spacing
  1. axis:    no    16.000000    0.000000    0.000000    64     0.2500
  2. axis:    no     0.000000   16.000000    0.000000    64     0.2500
  3. axis:    no     0.000000    0.000000   16.000000    64     0.2500

  Lengths:  16.000000  16.000000  16.000000
  Angles:   90.000000  90.000000  90.000000

Effective grid spacing dv^(1/3) = 0.2500

                     log10-error:    total        iterations:
           time      wfs    density  energy       fermi  poisson
iter:   1  14:26:01          +inf    -5.614560    3      1      
iter:   2  14:26:02         -2.10    -5.614347    2      1      
iter:   3  14:26:04         -2.30    -5.614243    2      1      
iter:   4  14:26:05         -2.77    -5.614239    2      1      
iter:   5  14:26:06         -3.43    -5.614239    2      1      
iter:   6  14:26:07         -3.63    -5.614239    2      1      
iter:   7  14:26:09         -4.21    -5.614239    1      1      

Converged after 7 iterations.

Dipole moment: (0.032287, 0.013808, 0.000388) |e|*Ang

Energy contributions relative to reference atoms: (reference = -30790.959854)

Kinetic:        +23.526071
Potential:      -20.530839
External:        +0.000000
XC:              -8.605347
Entropy (-ST):   -0.069882
Local:           +0.030818
--------------------------
Free energy:     -5.649180
Extrapolated:    -5.614239

Fermi level: -2.69018

 Band  Eigenvalues  Occupancy
    0     -4.63921    2.00000
    1     -3.39477    2.00000
    2     -3.05458    1.99863
    3     -2.69032    1.00137
    4     -1.66769    0.00000
    5     -1.59169    0.00000
    6     -1.45639    0.00000
    7      1.54958    0.00000
    8      1.65375    0.00000
    9      1.90757    0.00000

Gap: 1.023 eV
Transition (v -> c):
  (s=0, k=0, n=3, [0.00, 0.00, 0.00]) -> (s=0, k=0, n=4, [0.00, 0.00, 0.00])

Forces in eV/Ang:
  0 Na   -0.03200    0.02069    0.03641
  1 Na   -0.03080   -0.01341   -0.00073
  2 Na   -0.01529   -0.03859   -0.03487
  3 Na    0.00428   -0.01800    0.00916
  4 Na    0.05310   -0.00804   -0.00945
  5 Na    0.03196    0.04310    0.00629
  6 Na   -0.01015    0.01442   -0.00790

System changes: positions 

Initializing position-dependent things.

Density initialized from wave functions
           .--------------------------------------.  
          /|                                      |  
         / |                                      |  
        /  |                                      |  
       /   |                                      |  
      /    |                                      |  
     /     |                                      |  
    /      |                                      |  
   /       |                                      |  
  /        |                                      |  
 *         |                                      |  
 |         |           Na                         |  
 |         |                                      |  
 |         |              Na   Na                 |  
 |         |                                      |  
 |         |                                      |  
 |         |        Na         Na                 |  
 |         |               Na                     |  
 |         |                                      |  
 |         |           Na                         |  
 |         .--------------------------------------.  
 |        /                                      /   
 |       /                                      /    
 |      /                                      /     
 |     /                                      /      
 |    /                                      /       
 |   /                                      /        
 |  /                                      /         
 | /                                      /          
 |/                                      /           
 *--------------------------------------*            

Positions:
   0 Na     9.123389    6.442816    6.954044    ( 0.0000,  0.0000,  0.0000)
   1 Na     5.762389    7.578095    7.803028    ( 0.0000,  0.0000,  0.0000)
   2 Na     7.534443   10.678576    8.597729    ( 0.0000,  0.0000,  0.0000)
   3 Na     9.693486    9.724935    6.218601    ( 0.0000,  0.0000,  0.0000)
   4 Na     6.736927    8.278766   10.800938    ( 0.0000,  0.0000,  0.0000)
   5 Na     6.927838    7.758014    4.796946    ( 0.0000,  0.0000,  0.0000)
   6 Na    10.099217    8.567223    9.357823    ( 0.0000,  0.0000,  0.0000)

Unit cell:
           periodic     x           y           z      points  spacing
  1. axis:    no    16.000000    0.000000    0.000000    64     0.2500
  2. axis:    no     0.000000   16.000000    0.000000    64     0.2500
  3. axis:    no     0.000000    0.000000   16.000000    64     0.2500

  Lengths:  16.000000  16.000000  16.000000
  Angles:   90.000000  90.000000  90.000000

Effective grid spacing dv^(1/3) = 0.2500

                     log10-error:    total        iterations:
           time      wfs    density  energy       fermi  poisson
iter:   1  14:26:11          +inf    -5.632937    3      1      
iter:   2  14:26:12         -2.10    -5.632647    2      1      
iter:   3  14:26:13         -2.30    -5.632526    2      1      
iter:   4  14:26:14         -2.66    -5.632516    2      1      
iter:   5  14:26:16         -3.11    -5.632515    2      1      
iter:   6  14:26:17         -3.37    -5.632514    2      1      
iter:   7  14:26:18         -3.92    -5.632514    2      1      
iter:   8  14:26:19         -4.15    -5.632514    2      1      

Converged after 8 iterations.

Dipole moment: (0.041074, 0.018034, 0.000435) |e|*Ang

Energy contributions relative to reference atoms: (reference = -30790.959854)

Kinetic:        +23.992987
Potential:      -20.905940
External:        +0.000000
XC:              -8.716441
Entropy (-ST):   -0.069834
Local:           +0.031798
--------------------------
Free energy:     -5.667431
Extrapolated:    -5.632514

Fermi level: -2.71223

 Band  Eigenvalues  Occupancy
    0     -4.65892    2.00000
    1     -3.36724    2.00000
    2     -3.08185    1.99877
    3     -2.71236    1.00124
    4     -1.65951    0.00000
    5     -1.58231    0.00000
    6     -1.43044    0.00000
    7      1.58723    0.00000
    8      1.59768    0.00000
    9      1.88407    0.00000

Gap: 1.053 eV
Transition (v -> c):
  (s=0, k=0, n=3, [0.00, 0.00, 0.00]) -> (s=0, k=0, n=4, [0.00, 0.00, 0.00])

Forces in eV/Ang:
  0 Na   -0.04631    0.00852    0.01988
  1 Na   -0.03647   -0.01568   -0.00189
  2 Na   -0.03133   -0.03824   -0.02016
  3 Na    0.02192   -0.02465   -0.01387
  4 Na    0.05665   -0.00721   -0.00711
  5 Na    0.03561    0.04497    0.00612
  6 Na   -0.00052    0.03262    0.01640

System changes: positions 

Initializing position-dependent things.

Density initialized from wave functions
           .--------------------------------------.  
          /|                                      |  
         / |                                      |  
        /  |                                      |  
       /   |                                      |  
      /    |                                      |  
     /     |                                      |  
    /      |                                      |  
   /       |                                      |  
  /        |                                      |  
 *         |                                      |  
 |         |           Na                         |  
 |         |                                      |  
 |         |              Na   Na                 |  
 |         |                                      |  
 |         |                                      |  
 |         |        Na         Na                 |  
 |         |               Na                     |  
 |         |                                      |  
 |         |           Na                         |  
 |         .--------------------------------------.  
 |        /                                      /   
 |       /                                      /    
 |      /                                      /     
 |     /                                      /      
 |    /                                      /       
 |   /                                      /        
 |  /                                      /         
 | /                                      /          
 |/                                      /           
 *--------------------------------------*            

Positions:
   0 Na     9.080417    6.470044    7.012034    ( 0.0000,  0.0000,  0.0000)
   1 Na     5.703721    7.554131    7.802593    ( 0.0000,  0.0000,  0.0000)
   2 Na     7.515199   10.628177    8.538432    ( 0.0000,  0.0000,  0.0000)
   3 Na     9.718995    9.721872    6.215419    ( 0.0000,  0.0000,  0.0000)
   4 Na     6.793427    8.254847   10.775353    ( 0.0000,  0.0000,  0.0000)
   5 Na     6.953060    7.815443    4.821553    ( 0.0000,  0.0000,  0.0000)
   6 Na    10.115207    8.584499    9.361763    ( 0.0000,  0.0000,  0.0000)

Unit cell:
           periodic     x           y           z      points  spacing
  1. axis:    no    16.000000    0.000000    0.000000    64     0.2500
  2. axis:    no     0.000000   16.000000    0.000000    64     0.2500
  3. axis:    no     0.000000    0.000000   16.000000    64     0.2500

  Lengths:  16.000000  16.000000  16.000000
  Angles:   90.000000  90.000000  90.000000

Effective grid spacing dv^(1/3) = 0.2500

                     log10-error:    total        iterations:
           time      wfs    density  energy       fermi  poisson
iter:   1  14:26:21          +inf    -5.651317    3      1      
iter:   2  14:26:23         -2.24    -5.651158    2      1      
iter:   3  14:26:24         -2.43    -5.651096    2      1      
iter:   4  14:26:25         -2.78    -5.651090    2      1      
iter:   5  14:26:26         -3.28    -5.651090    1      1      
iter:   6  14:26:28         -3.51    -5.651089    2      1      
iter:   7  14:26:29         -4.08    -5.651089    2      1      

Converged after 7 iterations.

Dipole moment: (0.042451, 0.019250, 0.000024) |e|*Ang

Energy contributions relative to reference atoms: (reference = -30790.959854)

Kinetic:        +24.367077
Potential:      -21.202282
External:        +0.000000
XC:              -8.813475
Entropy (-ST):   -0.069793
Local:           +0.032487
--------------------------
Free energy:     -5.685986
Extrapolated:    -5.651089

Fermi level: -2.72583

 Band  Eigenvalues  Occupancy
    0     -4.67886    2.00000
    1     -3.35053    1.99999
    2     -3.10042    1.99889
    3     -2.72594    1.00112
    4     -1.65787    0.00000
    5     -1.57103    0.00000
    6     -1.41519    0.00000
    7      1.54477    0.00000
    8      1.61738    0.00000
    9      1.85528    0.00000

Gap: 1.068 eV
Transition (v -> c):
  (s=0, k=0, n=3, [0.00, 0.00, 0.00]) -> (s=0, k=0, n=4, [0.00, 0.00, 0.00])

Forces in eV/Ang:
  0 Na   -0.05471   -0.00127    0.01391
  1 Na   -0.03759   -0.01624   -0.00254
  2 Na   -0.04095   -0.03869   -0.01834
  3 Na    0.03729   -0.02461   -0.02921
  4 Na    0.05354   -0.01388   -0.00944
  5 Na    0.03036    0.04802    0.01096
  6 Na    0.01245    0.04420    0.03225

System changes: positions 

Initializing position-dependent things.

Density initialized from wave functions
           .--------------------------------------.  
          /|                                      |  
         / |                                      |  
        /  |                                      |  
       /   |                                      |  
      /    |                                      |  
     /     |                                      |  
    /      |                                      |  
   /       |                                      |  
  /        |                                      |  
 *         |                                      |  
 |         |           Na                         |  
 |         |                                      |  
 |         |              Na   Na                 |  
 |         |                                      |  
 |         |                                      |  
 |         |       Na          Na                 |  
 |         |               Na                     |  
 |         |                                      |  
 |         |           Na                         |  
 |         .--------------------------------------.  
 |        /                                      /   
 |       /                                      /    
 |      /                                      /     
 |     /                                      /      
 |    /                                      /       
 |   /                                      /        
 |  /                                      /         
 | /                                      /          
 |/                                      /           
 *--------------------------------------*            

Positions:
   0 Na     9.016635    6.495604    7.074251    ( 0.0000,  0.0000,  0.0000)
   1 Na     5.632492    7.524640    7.801167    ( 0.0000,  0.0000,  0.0000)
   2 Na     7.479707   10.563900    8.473172    ( 0.0000,  0.0000,  0.0000)
   3 Na     9.757827    9.708690    6.201114    ( 0.0000,  0.0000,  0.0000)
   4 Na     6.870522    8.226182   10.747181    ( 0.0000,  0.0000,  0.0000)
   5 Na     6.990306    7.890925    4.849403    ( 0.0000,  0.0000,  0.0000)
   6 Na    10.134830    8.618596    9.378156    ( 0.0000,  0.0000,  0.0000)

Unit cell:
           periodic     x           y           z      points  spacing
[...]
 *--------------------------------------*            

Positions:
   0 Na     7.686756    6.896937    8.501844    ( 0.0000,  0.0000,  0.0000)
   1 Na     9.502842    8.417687   10.505445    ( 0.0000,  0.0000,  0.0000)
   2 Na     7.903002    8.410252    5.805271    ( 0.0000,  0.0000,  0.0000)
   3 Na    10.387253    8.308554    7.495718    ( 0.0000,  0.0000,  0.0000)
   4 Na    10.361263    5.758784    9.174186    ( 0.0000,  0.0000,  0.0000)
   5 Na     5.442396    8.677103    7.650230    ( 0.0000,  0.0000,  0.0000)
   6 Na     8.036726   10.079290    8.466906    ( 0.0000,  0.0000,  0.0000)

Unit cell:
           periodic     x           y           z      points  spacing
  1. axis:    no    16.000000    0.000000    0.000000    64     0.2500
  2. axis:    no     0.000000   16.000000    0.000000    64     0.2500
  3. axis:    no     0.000000    0.000000   16.000000    64     0.2500

  Lengths:  16.000000  16.000000  16.000000
  Angles:   90.000000  90.000000  90.000000

Effective grid spacing dv^(1/3) = 0.2500

                     log10-error:    total        iterations:
           time      wfs    density  energy       fermi  poisson
iter:   1  14:58:01          +inf    -4.963450    4      1      
iter:   2  14:58:02         -1.38    -4.954700    3      1      
iter:   3  14:58:03         -1.63    -4.949612    3      1      
iter:   4  14:58:04         -2.11    -4.948654    3      1      
iter:   5  14:58:06         -2.42    -4.948508    3      1      
iter:   6  14:58:07         -2.69    -4.948461    3      1      
iter:   7  14:58:08         -3.31    -4.948458    3      1      
iter:   8  14:58:09         -3.72    -4.948457    2      1      
iter:   9  14:58:10         -3.97    -4.948457    2      1      
iter:  10  14:58:12         -4.51    -4.948457    2      1      

Converged after 10 iterations.

Dipole moment: (-0.092075, -0.135687, 0.029647) |e|*Ang

Energy contributions relative to reference atoms: (reference = -30790.959854)

Kinetic:        +43.439733
Potential:      -35.737488
External:        +0.000000
XC:             -12.651128
Entropy (-ST):   -0.112200
Local:           +0.056525
--------------------------
Free energy:     -5.004557
Extrapolated:    -4.948457

Fermi level: -2.77984

 Band  Eigenvalues  Occupancy
    0     -5.14740    2.00000
    1     -3.70641    2.00000
    2     -2.84093    1.54476
    3     -2.82897    1.45524
    4     -1.85971    0.00000
    5     -1.45080    0.00000
    6     -1.27721    0.00000
    7      0.59310    0.00000
    8      0.85111    0.00000
    9      1.87078    0.00000

Gap: 0.969 eV
Transition (v -> c):
  (s=0, k=0, n=3, [0.00, 0.00, 0.00]) -> (s=0, k=0, n=4, [0.00, 0.00, 0.00])

Forces in eV/Ang:
  0 Na   -0.35539   -0.52939    0.12446
  1 Na    0.07041    0.20929    0.59718
  2 Na    0.04123   -0.04814   -0.63783
  3 Na    0.56209    0.19683   -0.33730
  4 Na    0.24769   -0.52050    0.05703
  5 Na   -0.57090    0.02696    0.05330
  6 Na    0.00621    0.66606    0.14458

System changes: positions 

Initializing position-dependent things.

Density initialized from wave functions
           .--------------------------------------.  
          /|                                      |  
         / |                                      |  
        /  |                                      |  
       /   |                                      |  
      /    |                                      |  
     /     |                                      |  
    /      |                                      |  
   /       |                                      |  
  /        |                                      |  
 *         |                                      |  
 |         |                 Na                   |  
 |         |                                      |  
 |         |               Na                     |  
 |         |                                      |  
 |         |       Na   Na    NaNa                |  
 |         |                                      |  
 |         |                                      |  
 |         |              Na                      |  
 |         |                                      |  
 |         .--------------------------------------.  
 |        /                                      /   
 |       /                                      /    
 |      /                                      /     
 |     /                                      /      
 |    /                                      /       
 |   /                                      /        
 |  /                                      /         
 | /                                      /          
 |/                                      /           
 *--------------------------------------*            

Positions:
   0 Na     7.618319    6.795047    8.525703    ( 0.0000,  0.0000,  0.0000)
   1 Na     9.516128    8.458120   10.619247    ( 0.0000,  0.0000,  0.0000)
   2 Na     7.911443    8.401168    5.683828    ( 0.0000,  0.0000,  0.0000)
   3 Na    10.494429    8.343716    7.428901    ( 0.0000,  0.0000,  0.0000)
   4 Na    10.406034    5.663019    9.184499    ( 0.0000,  0.0000,  0.0000)
   5 Na     5.337739    8.681415    7.660343    ( 0.0000,  0.0000,  0.0000)
   6 Na     8.036227   10.206311    8.497329    ( 0.0000,  0.0000,  0.0000)

Unit cell:
           periodic     x           y           z      points  spacing
  1. axis:    no    16.000000    0.000000    0.000000    64     0.2500
  2. axis:    no     0.000000   16.000000    0.000000    64     0.2500
  3. axis:    no     0.000000    0.000000   16.000000    64     0.2500

  Lengths:  16.000000  16.000000  16.000000
  Angles:   90.000000  90.000000  90.000000

Effective grid spacing dv^(1/3) = 0.2500

                     log10-error:    total        iterations:
           time      wfs    density  energy       fermi  poisson
iter:   1  14:58:13          +inf    -5.341439    4      1      
iter:   2  14:58:15         -1.57    -5.337677    4      1      
iter:   3  14:58:16         -1.86    -5.336146    4      1      
iter:   4  14:58:17         -2.24    -5.335676    3      1      
iter:   5  14:58:18         -2.60    -5.335599    2      1      
iter:   6  14:58:19         -2.92    -5.335583    3      1      
iter:   7  14:58:21         -3.33    -5.335580    3      1      
iter:   8  14:58:22         -3.82    -5.335580    2      1      
iter:   9  14:58:23         -4.11    -5.335580    2      1      

Converged after 9 iterations.

Dipole moment: (-0.084333, -0.123617, 0.027354) |e|*Ang

Energy contributions relative to reference atoms: (reference = -30790.959854)

Kinetic:        +34.177463
Potential:      -28.602871
External:        +0.000000
XC:             -10.898289
Entropy (-ST):   -0.112408
Local:           +0.044321
--------------------------
Free energy:     -5.391784
Extrapolated:    -5.335580

Fermi level: -2.77270

 Band  Eigenvalues  Occupancy
    0     -4.98131    2.00000
    1     -3.62066    2.00000
    2     -2.83047    1.52101
    3     -2.82486    1.47899
    4     -1.82642    0.00000
    5     -1.50053    0.00000
    6     -1.33515    0.00000
    7      0.78197    0.00000
    8      1.01028    0.00000
    9      1.94730    0.00000

Gap: 0.998 eV
Transition (v -> c):
  (s=0, k=0, n=3, [0.00, 0.00, 0.00]) -> (s=0, k=0, n=4, [0.00, 0.00, 0.00])

Forces in eV/Ang:
  0 Na   -0.17202   -0.25609    0.06013
  1 Na    0.03414    0.08936    0.26917
  2 Na    0.01247   -0.02098   -0.28685
  3 Na    0.26520    0.11892   -0.13481
  4 Na    0.13321   -0.26354    0.03244
  5 Na   -0.29431    0.01920    0.02345
  6 Na    0.02228    0.31543    0.03986

System changes: positions 

Initializing position-dependent things.

Density initialized from wave functions
           .--------------------------------------.  
          /|                                      |  
         / |                                      |  
        /  |                                      |  
       /   |                                      |  
      /    |                                      |  
     /     |                                      |  
    /      |                                      |  
   /       |                                      |  
  /        |                                      |  
 *         |                                      |  
 |         |                  Na                  |  
 |         |                                      |  
 |         |               Na                     |  
 |         |                                      |  
 |         |       Na   Na    Na                  |  
 |         |                    Na                |  
 |         |                                      |  
 |         |              Na                      |  
 |         |                                      |  
 |         .--------------------------------------.  
 |        /                                      /   
 |       /                                      /    
 |      /                                      /     
 |     /                                      /      
 |    /                                      /       
 |   /                                      /        
 |  /                                      /         
 | /                                      /          
 |/                                      /           
 *--------------------------------------*            

Positions:
   0 Na     7.560995    6.709687    8.545745    ( 0.0000,  0.0000,  0.0000)
   1 Na     9.527448    8.490243   10.712618    ( 0.0000,  0.0000,  0.0000)
   2 Na     7.917138    8.393756    5.584207    ( 0.0000,  0.0000,  0.0000)
   3 Na    10.583966    8.378291    7.378133    ( 0.0000,  0.0000,  0.0000)
   4 Na    10.447352    5.578190    9.194257    ( 0.0000,  0.0000,  0.0000)
   5 Na     5.244031    8.686472    7.668589    ( 0.0000,  0.0000,  0.0000)
   6 Na     8.039622   10.312577    8.516899    ( 0.0000,  0.0000,  0.0000)

Unit cell:
           periodic     x           y           z      points  spacing
  1. axis:    no    16.000000    0.000000    0.000000    64     0.2500
  2. axis:    no     0.000000   16.000000    0.000000    64     0.2500
  3. axis:    no     0.000000    0.000000   16.000000    64     0.2500

  Lengths:  16.000000  16.000000  16.000000
  Angles:   90.000000  90.000000  90.000000

Effective grid spacing dv^(1/3) = 0.2500

                     log10-error:    total        iterations:
           time      wfs    density  energy       fermi  poisson
iter:   1  14:58:25          +inf    -5.480368    4      1      
iter:   2  14:58:26         -1.65    -5.477755    4      1      
iter:   3  14:58:27         -1.99    -5.477049    4      1      
iter:   4  14:58:29         -2.31    -5.476827    3      1      
iter:   5  14:58:30         -2.63    -5.476770    3      1      
iter:   6  14:58:31         -3.10    -5.476764    3      1      
iter:   7  14:58:32         -3.48    -5.476764    2      1      
iter:   8  14:58:33         -3.90    -5.476764    2      1      
iter:   9  14:58:34         -4.24    -5.476764    2      1      

Converged after 9 iterations.

Dipole moment: (-0.075395, -0.109660, 0.024561) |e|*Ang

Energy contributions relative to reference atoms: (reference = -30790.959854)

Kinetic:        +27.897592
Potential:      -23.739299
External:        +0.000000
XC:              -9.615594
Entropy (-ST):   -0.112452
Local:           +0.036764
--------------------------
Free energy:     -5.532989
Extrapolated:    -5.476764

Fermi level: -2.77368

 Band  Eigenvalues  Occupancy
    0     -4.84739    2.00000
    1     -3.55292    2.00000
    2     -2.83006    1.51077
    3     -2.82718    1.48923
    4     -1.81464    0.00000
    5     -1.54351    0.00000
    6     -1.39221    0.00000
    7      1.00936    0.00000
    8      1.19699    0.00000
    9      2.02971    0.00000

Gap: 1.013 eV
Transition (v -> c):
  (s=0, k=0, n=3, [0.00, 0.00, 0.00]) -> (s=0, k=0, n=4, [0.00, 0.00, 0.00])

Forces in eV/Ang:
  0 Na   -0.07266   -0.10665    0.02510
  1 Na    0.01345    0.02209    0.07362
  2 Na    0.00040   -0.00290   -0.08052
  3 Na    0.09052    0.06986   -0.02843
  4 Na    0.05156   -0.10039    0.01572
  5 Na   -0.11271    0.00733    0.00536
  6 Na    0.02913    0.11215   -0.01102

System changes: positions 

Initializing position-dependent things.

Density initialized from wave functions
           .--------------------------------------.  
          /|                                      |  
         / |                                      |  
        /  |                                      |  
       /   |                                      |  
      /    |                                      |  
     /     |                                      |  
    /      |                                      |  
   /       |                                      |  
  /        |                                      |  
 *         |                                      |  
 |         |                  Na                  |  
 |         |                                      |  
 |         |               Na                     |  
 |         |                                      |  
 |         |       Na  Na     Na                  |  
 |         |                    Na                |  
 |         |                                      |  
 |         |              Na                      |  
 |         |                                      |  
 |         .--------------------------------------.  
 |        /                                      /   
 |       /                                      /    
 |      /                                      /     
 |     /                                      /      
 |    /                                      /       
 |   /                                      /        
 |  /                                      /         
 | /                                      /          
 |/                                      /           
 *--------------------------------------*            

Positions:
   0 Na     7.521292    6.650815    8.559590    ( 0.0000,  0.0000,  0.0000)
   1 Na     9.535191    8.508786   10.769134    ( 0.0000,  0.0000,  0.0000)
   2 Na     7.919477    8.389773    5.523606    ( 0.0000,  0.0000,  0.0000)
   3 Na    10.642055    8.408237    7.350690    ( 0.0000,  0.0000,  0.0000)
   4 Na    10.477073    5.519190    9.201941    ( 0.0000,  0.0000,  0.0000)
   5 Na     5.178218    8.690615    7.673370    ( 0.0000,  0.0000,  0.0000)
   6 Na     8.047356   10.382346    8.522535    ( 0.0000,  0.0000,  0.0000)

Unit cell:
           periodic     x           y           z      points  spacing
  1. axis:    no    16.000000    0.000000    0.000000    64     0.2500
  2. axis:    no     0.000000   16.000000    0.000000    64     0.2500
  3. axis:    no     0.000000    0.000000   16.000000    64     0.2500

  Lengths:  16.000000  16.000000  16.000000
  Angles:   90.000000  90.000000  90.000000

Effective grid spacing dv^(1/3) = 0.2500

                     log10-error:    total        iterations:
           time      wfs    density  energy       fermi  poisson
iter:   1  14:58:36          +inf    -5.505572    4      1      
iter:   2  14:58:38         -1.76    -5.503975    4      1      
iter:   3  14:58:39         -2.16    -5.503696    3      1      
iter:   4  14:58:40         -2.45    -5.503616    3      1      
iter:   5  14:58:41         -2.75    -5.503593    3      1      
iter:   6  14:58:42         -3.29    -5.503590    2      1      
iter:   7  14:58:43         -3.71    -5.503590    2      1      
iter:   8  14:58:45         -4.01    -5.503590    2      1      

Converged after 8 iterations.

Dipole moment: (-0.066343, -0.095635, 0.021584) |e|*Ang

Energy contributions relative to reference atoms: (reference = -30790.959854)

Kinetic:        +24.381752
Potential:      -21.005408
External:        +0.000000
XC:              -8.856696
Entropy (-ST):   -0.112191
Local:           +0.032856
--------------------------
Free energy:     -5.559686
Extrapolated:    -5.503590

Fermi level: -2.77691

 Band  Eigenvalues  Occupancy
    0     -4.76301    2.00000
    1     -3.51059    2.00000
    2     -2.83811    1.54554
    3     -2.82594    1.45446
    4     -1.81524    0.00000
    5     -1.57028    0.00000
    6     -1.43398    0.00000
    7      1.21520    0.00000
    8      1.35555    0.00000
    9      2.08789    0.00000

Gap: 1.011 eV
Transition (v -> c):
  (s=0, k=0, n=3, [0.00, 0.00, 0.00]) -> (s=0, k=0, n=4, [0.00, 0.00, 0.00])

Forces in eV/Ang:
  0 Na   -0.02707   -0.03969    0.00903
  1 Na    0.00355   -0.00900   -0.02429
  2 Na   -0.00423    0.00765    0.02252
  3 Na    0.00753    0.04531    0.01817
  4 Na    0.00247   -0.01368    0.00614
  5 Na   -0.01398   -0.00349   -0.00179
  6 Na    0.03194    0.01464   -0.03221

System changes: positions 

Initializing position-dependent things.

Density initialized from wave functions
           .--------------------------------------.  
          /|                                      |  
         / |                                      |  
        /  |                                      |  
       /   |                                      |  
      /    |                                      |  
     /     |                                      |  
    /      |                                      |  
   /       |                                      |  
  /        |                                      |  
 *         |                                      |  
 |         |                  Na                  |  
 |         |                                      |  
 |         |               Na                     |  
 |         |                                      |  
 |         |       Na  Na     Na                  |  
 |         |                    Na                |  
 |         |                                      |  
 |         |              Na                      |  
 |         |                                      |  
 |         .--------------------------------------.  
 |        /                                      /   
 |       /                                      /    
 |      /                                      /     
 |     /                                      /      
 |    /                                      /       
 |   /                                      /        
 |  /                                      /         
 | /                                      /          
 |/                                      /           
 *--------------------------------------*            

Positions:
   0 Na     7.512474    6.637810    8.562610    ( 0.0000,  0.0000,  0.0000)
   1 Na     9.536688    8.509967   10.773317    ( 0.0000,  0.0000,  0.0000)
   2 Na     7.919166    8.390257    5.518661    ( 0.0000,  0.0000,  0.0000)
   3 Na    10.650704    8.418376    7.349690    ( 0.0000,  0.0000,  0.0000)
   4 Na    10.481514    5.509397    9.203817    ( 0.0000,  0.0000,  0.0000)
   5 Na     5.167413    8.690783    7.673745    ( 0.0000,  0.0000,  0.0000)
   6 Na     8.052745   10.393484    8.518784    ( 0.0000,  0.0000,  0.0000)

Unit cell:
           periodic     x           y           z      points  spacing
  1. axis:    no    16.000000    0.000000    0.000000    64     0.2500
  2. axis:    no     0.000000   16.000000    0.000000    64     0.2500
  3. axis:    no     0.000000    0.000000   16.000000    64     0.2500

  Lengths:  16.000000  16.000000  16.000000
  Angles:   90.000000  90.000000  90.000000

Effective grid spacing dv^(1/3) = 0.2500

                     log10-error:    total        iterations:
           time      wfs    density  energy       fermi  poisson
iter:   1  14:58:47          +inf    -5.505433    3      1      
iter:   2  14:58:48         -2.23    -5.505183    3      1      
iter:   3  14:58:49         -2.87    -5.505162    3      1      
iter:   4  14:58:50         -3.16    -5.505158    3      1      
