
  ___ ___ ___ _ _ _  
 |   |   |_  | | | | 
 | | | | | . | | | | 
 |__ |  _|___|_____|  19.8.1
 |___|_|             

User:   eliasel@hebbe25-2
Date:   Thu Feb  4 14:29:39 2021
Arch:   x86_64
Pid:    17155
Python: 3.7.2
gpaw:   /apps/Hebbe7/software/MPI/intel/2019.1.144-GCC-8.2.0-2.31.1/impi/2018.4.274/GPAW/19.8.1-Python-3.7.2/lib/python3.7/site-packages/gpaw
_gpaw:  /apps/Hebbe7/software/MPI/intel/2019.1.144-GCC-8.2.0-2.31.1/impi/2018.4.274/GPAW/19.8.1-Python-3.7.2/lib/python3.7/site-packages/
        _gpaw.cpython-37m-x86_64-linux-gnu.so
ase:    /apps/Hebbe7/software/MPI/intel/2019.1.144-GCC-8.2.0-2.31.1/impi/2018.4.274/ASE/3.18.0-Python-3.7.2/lib/python3.7/site-packages/ase (version 3.18.0)
numpy:  /apps/Hebbe7/software/MPI/intel/2019.1.144-GCC-8.2.0-2.31.1/impi/2018.4.274/SciPy-bundle/2019.03/lib/python3.7/site-packages/numpy (version 1.16.2)
scipy:  /apps/Hebbe7/software/MPI/intel/2019.1.144-GCC-8.2.0-2.31.1/impi/2018.4.274/SciPy-bundle/2019.03/lib/python3.7/site-packages/scipy (version 1.2.1)
libxc:  4.3.4
units:  Angstrom and eV
cores:  1

Input parameters:
  basis: dzp
  h: 0.25
  mode: lcao
  nbands: 10
  occupations: {name: fermi-dirac,
                width: 0.05}
  setups: {Na: 1}

System changes: positions, numbers, cell, pbc, initial_charges, initial_magmoms 

Initialize ...

Na-setup:
  name: Sodium
  id: fa5c50181d04022fed15b2593599c257
  Z: 11
  valence: 1
  core: 10
  charge: 0.0
  file: /apps/Hebbe7/software/Core/GPAW-setups/0.9.20000/Na.1.LDA.gz
  compensation charges: gauss, rc=0.43, lmax=2
  cutoffs: 2.36(filt), 3.60(core),
  valence states:
                energy  radius
    3s(1.00)    -2.819   1.349
    3p(0.00)    -0.774   1.349
    *s          24.392   1.349

  LCAO basis set for Na:
    Name: 1.dzp
    File: /apps/Hebbe7/software/Core/GPAW-setups/0.9.20000/Na.1.dzp.basis.gz
    Number of radial functions: 3
    Number of spherical harmonics: 5
      l=0, rc=11.7656 Bohr: 3s-sz confined orbital
      l=0, rc=7.1094 Bohr: 3s-dz split-valence wave
      l=1, rc=11.7656 Bohr: p-type Gaussian polarization

Reference energy: -35189.668405

Spin-paired calculation

Occupation numbers:
  Fermi-Dirac: width=0.0500 eV

Convergence criteria:
  Maximum total energy change: 0.0005 eV / electron
  Maximum integral of absolute density change: 0.0001 electrons
  Maximum integral of absolute eigenstate change: 4e-08 eV^2
  Maximum number of iterations: 333

Symmetries present (total): 1

  ( 1  0  0)
  ( 0  1  0)
  ( 0  0  1)

1 k-point (Gamma)
1 k-point in the irreducible part of the Brillouin zone
       k-points in crystal coordinates                weights
   0:     0.00000000    0.00000000    0.00000000          1/1

Wave functions: LCAO
  Diagonalizer: Serial LAPACK
  Atomic Correction: dense with blas
  Datatype: float
 

Eigensolver
   LCAO using direct dense diagonalizer 

Densities:
  Coarse grid: 64*64*64 grid
  Fine grid: 128*128*128 grid
  Total Charge: 0.000000 

Density mixing:
  Method: separate
  Backend: pulay
  Linear mixing parameter: 0.25
  Mixing with 3 old densities
  No damping of long wave oscillations 

Hamiltonian:
  XC and Coulomb potentials evaluated on a 128*128*128 grid
  Using the LDA Exchange-Correlation functional
  Interpolation: tri-quintic (5. degree polynomial)
  Poisson solver: FastPoissonSolver using
    6*3+1=19 point O(h^6) finite-difference Laplacian stencil;
    FFT axes: [];
    FST axes: [0, 1, 2].
 

Memory estimate:
  Process memory now: 254.34 MiB
  Calculator: 137.65 MiB
    Density: 86.07 MiB
      Arrays: 50.70 MiB
      Localized functions: 23.92 MiB
      Mixer: 11.45 MiB
    Hamiltonian: 34.89 MiB
      Arrays: 33.16 MiB
      XC: 0.00 MiB
      Poisson: 0.00 MiB
      vbar: 1.73 MiB
    Wavefunctions: 16.70 MiB
      C [qnM]: 0.00 MiB
      S, T [2 x qmm]: 0.02 MiB
      P [aqMi]: 0.00 MiB
      BasisFunctions: 16.67 MiB
      Eigensolver: 0.00 MiB

Total number of cores used: 1

Number of atoms: 8
Number of atomic orbitals: 40
Number of bands in calculation: 10
Bands to converge: occupied states only
Number of valence electrons: 8

... initialized

Initializing position-dependent things.

Density initialized from atomic densities
           .--------------------------------------.  
          /|                                      |  
         / |                                      |  
        /  |                                      |  
       /   |                                      |  
      /    |                                      |  
     /     |                                      |  
    /      |                                      |  
   /       |                                      |  
  /        |                                      |  
 *         |                                      |  
 |         |                                      |  
 |         |            Na                        |  
 |         |        Na     Na                     |  
 |         |                                      |  
 |         |                  Na                  |  
 |         |           NNa                        |  
 |         |                 Na                   |  
 |         |                                      |  
 |         |                Na                    |  
 |         .--------------------------------------.  
 |        /                                      /   
 |       /                                      /    
 |      /                                      /     
 |     /                                      /      
 |    /                                      /       
 |   /                                      /        
 |  /                                      /         
 | /                                      /          
 |/                                      /           
 *--------------------------------------*            

Positions:
   0 Na     7.074391    8.147679    6.869367    ( 0.0000,  0.0000,  0.0000)
   1 Na     8.588992    8.521952    9.289447    ( 0.0000,  0.0000,  0.0000)
   2 Na     7.744189    5.853125    8.460394    ( 0.0000,  0.0000,  0.0000)
   3 Na     9.831984    7.211918    7.063157    ( 0.0000,  0.0000,  0.0000)
   4 Na     5.810942    7.772025    9.424542    ( 0.0000,  0.0000,  0.0000)
   5 Na     7.729908    6.591979   11.230412    ( 0.0000,  0.0000,  0.0000)
   6 Na     8.840934    8.348394    4.620375    ( 0.0000,  0.0000,  0.0000)
   7 Na     9.249873   10.031534    6.931952    ( 0.0000,  0.0000,  0.0000)

Unit cell:
           periodic     x           y           z      points  spacing
  1. axis:    no    16.000000    0.000000    0.000000    64     0.2500
  2. axis:    no     0.000000   16.000000    0.000000    64     0.2500
  3. axis:    no     0.000000    0.000000   16.000000    64     0.2500

  Lengths:  16.000000  16.000000  16.000000
  Angles:   90.000000  90.000000  90.000000

Effective grid spacing dv^(1/3) = 0.2500

                     log10-error:    total        iterations:
           time      wfs    density  energy       fermi  poisson
iter:   1  14:29:46          +inf    -5.314263    3      1      
iter:   2  14:29:47         -0.49    -4.573172    33     1      
iter:   3  14:29:48         -0.86    -4.443109    32     1      
iter:   4  14:29:50         -1.24    -4.440490    2      1      
iter:   5  14:29:51         -1.37    -4.423377    4      1      
iter:   6  14:29:52         -1.97    -4.422651    2      1      
iter:   7  14:29:53         -2.25    -4.422036    3      1      
iter:   8  14:29:55         -2.61    -4.421858    3      1      
iter:   9  14:29:56         -3.01    -4.421907    2      1      
iter:  10  14:29:57         -3.34    -4.421952    2      1      
iter:  11  14:29:59         -3.53    -4.421961    2      1      
iter:  12  14:30:00         -3.70    -4.421957    2      1      
iter:  13  14:30:01         -3.99    -4.421952    2      1      
iter:  14  14:30:02         -4.24    -4.421951    2      1      

Converged after 14 iterations.

Dipole moment: (0.002673, -0.003681, -0.002260) |e|*Ang

Energy contributions relative to reference atoms: (reference = -35189.668405)

Kinetic:        +67.759653
Potential:      -54.434239
External:        +0.000000
XC:             -17.786490
Entropy (-ST):   -0.104734
Local:           +0.091493
--------------------------
Free energy:     -4.474318
Extrapolated:    -4.421951

Fermi level: -2.75773

 Band  Eigenvalues  Occupancy
    0     -5.46887    2.00000
    1     -4.25398    2.00000
    2     -2.87628    1.82917
    3     -2.87522    1.82584
    4     -2.67933    0.34499
    5     -1.56319    0.00000
    6     -1.55432    0.00000
    7     -0.94401    0.00000
    8      0.27096    0.00000
    9      0.86078    0.00000

Gap: 0.196 eV
Transition (v -> c):
  (s=0, k=0, n=3, [0.00, 0.00, 0.00]) -> (s=0, k=0, n=4, [0.00, 0.00, 0.00])

Forces in eV/Ang:
  0 Na   -1.27459    0.15272   -0.65735
  1 Na    0.69409    0.93097    0.85439
  2 Na   -0.03136   -1.40402   -0.40823
  3 Na    1.21553   -0.82568    0.00889
  4 Na   -1.24157    0.42064    0.11102
  5 Na    0.31513   -0.33814    0.88481
  6 Na   -0.03497   -0.19826   -0.97721
  7 Na    0.35460    1.26025    0.18399

System changes: positions 

Initializing position-dependent things.

Density initialized from wave functions
           .--------------------------------------.  
          /|                                      |  
         / |                                      |  
        /  |                                      |  
       /   |                                      |  
      /    |                                      |  
     /     |                                      |  
    /      |                                      |  
   /       |                                      |  
  /        |                                      |  
 *         |                                      |  
 |         |                                      |  
 |         |            Na                        |  
 |         |        Na      Na                    |  
 |         |                                      |  
 |         |                  Na                  |  
 |         |           Na                         |  
 |         |                  Na                  |  
 |         |                                      |  
 |         |                Na                    |  
 |         .--------------------------------------.  
 |        /                                      /   
 |       /                                      /    
 |      /                                      /     
 |     /                                      /      
 |    /                                      /       
 |   /                                      /        
 |  /                                      /         
 | /                                      /          
 |/                                      /           
 *--------------------------------------*            

Positions:
   0 Na     6.937776    8.164048    6.798910    ( 0.0000,  0.0000,  0.0000)
   1 Na     8.663388    8.621736    9.381023    ( 0.0000,  0.0000,  0.0000)
   2 Na     7.740828    5.702638    8.416639    ( 0.0000,  0.0000,  0.0000)
   3 Na     9.962268    7.123419    7.064110    ( 0.0000,  0.0000,  0.0000)
   4 Na     5.677867    7.817111    9.436442    ( 0.0000,  0.0000,  0.0000)
   5 Na     7.763685    6.555735   11.325249    ( 0.0000,  0.0000,  0.0000)
   6 Na     8.837186    8.327144    4.515634    ( 0.0000,  0.0000,  0.0000)
   7 Na     9.287880   10.166611    6.951672    ( 0.0000,  0.0000,  0.0000)

Unit cell:
           periodic     x           y           z      points  spacing
  1. axis:    no    16.000000    0.000000    0.000000    64     0.2500
  2. axis:    no     0.000000   16.000000    0.000000    64     0.2500
  3. axis:    no     0.000000    0.000000   16.000000    64     0.2500

  Lengths:  16.000000  16.000000  16.000000
  Angles:   90.000000  90.000000  90.000000

Effective grid spacing dv^(1/3) = 0.2500

                     log10-error:    total        iterations:
           time      wfs    density  energy       fermi  poisson
iter:   1  14:30:05          +inf    -5.575853    4      1      
iter:   2  14:30:06         -1.21    -5.572875    3      1      
iter:   3  14:30:07         -1.69    -5.570994    3      1      
iter:   4  14:30:08         -1.88    -5.569973    3      1      
iter:   5  14:30:10         -2.30    -5.569364    2      1      
iter:   6  14:30:11         -2.67    -5.569224    2      1      
iter:   7  14:30:12         -3.01    -5.569224    2      1      
iter:   8  14:30:14         -3.29    -5.569232    2      1      
iter:   9  14:30:15         -3.54    -5.569244    2      1      
iter:  10  14:30:16         -3.82    -5.569253    2      1      
iter:  11  14:30:17         -4.05    -5.569257    2      1      

Converged after 11 iterations.

Dipole moment: (0.010992, -0.018436, -0.005858) |e|*Ang

Energy contributions relative to reference atoms: (reference = -35189.668405)

Kinetic:        +51.795832
Potential:      -42.341022
External:        +0.000000
XC:             -15.054272
Entropy (-ST):   -0.080468
Local:           +0.070440
--------------------------
Free energy:     -5.609491
Extrapolated:    -5.569257

Fermi level: -2.70443

 Band  Eigenvalues  Occupancy
    0     -5.26007    2.00000
    1     -4.12025    2.00000
    2     -2.84583    1.88834
    3     -2.84129    1.87839
    4     -2.60319    0.23327
    5     -1.58807    0.00000
    6     -1.55962    0.00000
    7     -0.94063    0.00000
    8      0.50779    0.00000
    9      0.92846    0.00000

Gap: 0.238 eV
Transition (v -> c):
  (s=0, k=0, n=3, [0.00, 0.00, 0.00]) -> (s=0, k=0, n=4, [0.00, 0.00, 0.00])

Forces in eV/Ang:
  0 Na   -0.69853    0.10372   -0.36393
  1 Na    0.36889    0.52261    0.47497
  2 Na   -0.07675   -0.76696   -0.25075
  3 Na    0.70297   -0.40985    0.03885
  4 Na   -0.68771    0.24098    0.06762
  5 Na    0.22357   -0.21872    0.45702
  6 Na   -0.01769   -0.17549   -0.52594
  7 Na    0.18789    0.70288    0.10122

System changes: positions 

Initializing position-dependent things.

Density initialized from wave functions
           .--------------------------------------.  
          /|                                      |  
         / |                                      |  
        /  |                                      |  
       /   |                                      |  
      /    |                                      |  
     /     |                                      |  
    /      |                                      |  
   /       |                                      |  
  /        |                                      |  
 *         |                                      |  
 |         |                                      |  
 |         |            Na                        |  
 |         |       Na       Na                    |  
 |         |                                      |  
 |         |                  Na                  |  
 |         |           Na                         |  
 |         |                  Na                  |  
 |         |                                      |  
 |         |                Na                    |  
 |         .--------------------------------------.  
 |        /                                      /   
 |       /                                      /    
 |      /                                      /     
 |     /                                      /      
 |    /                                      /       
 |   /                                      /        
 |  /                                      /         
 | /                                      /          
 |/                                      /           
 *--------------------------------------*            

Positions:
   0 Na     6.828420    8.179142    6.742146    ( 0.0000,  0.0000,  0.0000)
   1 Na     8.721795    8.702844    9.454996    ( 0.0000,  0.0000,  0.0000)
   2 Na     7.732214    5.582427    8.378928    ( 0.0000,  0.0000,  0.0000)
   3 Na    10.070217    7.056820    7.068252    ( 0.0000,  0.0000,  0.0000)
   4 Na     5.570620    7.854240    9.446640    ( 0.0000,  0.0000,  0.0000)
   5 Na     7.795780    6.523402   11.398389    ( 0.0000,  0.0000,  0.0000)
   6 Na     8.834332    8.303488    4.432749    ( 0.0000,  0.0000,  0.0000)
   7 Na     9.317663   10.275951    6.967496    ( 0.0000,  0.0000,  0.0000)

Unit cell:
           periodic     x           y           z      points  spacing
  1. axis:    no    16.000000    0.000000    0.000000    64     0.2500
  2. axis:    no     0.000000   16.000000    0.000000    64     0.2500
  3. axis:    no     0.000000    0.000000   16.000000    64     0.2500

  Lengths:  16.000000  16.000000  16.000000
  Angles:   90.000000  90.000000  90.000000

Effective grid spacing dv^(1/3) = 0.2500

                     log10-error:    total        iterations:
           time      wfs    density  energy       fermi  poisson
iter:   1  14:30:20          +inf    -6.093004    4      1      
iter:   2  14:30:21         -1.41    -6.092792    3      1      
iter:   3  14:30:22         -1.89    -6.093029    3      1      
iter:   4  14:30:23         -2.10    -6.092988    3      1      
iter:   5  14:30:25         -2.49    -6.092680    2      1      
iter:   6  14:30:26         -2.85    -6.092602    2      1      
iter:   7  14:30:27         -3.19    -6.092606    2      1      
iter:   8  14:30:29         -3.51    -6.092606    2      1      
iter:   9  14:30:30         -3.88    -6.092612    2      1      
iter:  10  14:30:31         -4.09    -6.092619    2      1      

Converged after 10 iterations.

Dipole moment: (0.020344, -0.035687, -0.009914) |e|*Ang

Energy contributions relative to reference atoms: (reference = -35189.668405)

Kinetic:        +41.939565
Potential:      -34.840277
External:        +0.000000
XC:             -13.218356
Entropy (-ST):   -0.059089
Local:           +0.055993
--------------------------
Free energy:     -6.122163
Extrapolated:    -6.092619

Fermi level: -2.67065

 Band  Eigenvalues  Occupancy
    0     -5.09148    2.00000
    1     -4.01187    2.00000
    2     -2.83832    1.93243
    3     -2.82688    1.91578
    4     -2.54568    0.15179
    5     -1.61773    0.00000
    6     -1.56901    0.00000
    7     -0.95060    0.00000
    8      0.70285    0.00000
    9      1.02372    0.00000

Gap: 0.281 eV
Transition (v -> c):
  (s=0, k=0, n=3, [0.00, 0.00, 0.00]) -> (s=0, k=0, n=4, [0.00, 0.00, 0.00])

Forces in eV/Ang:
  0 Na   -0.40915    0.07988   -0.20976
  1 Na    0.19996    0.31704    0.27993
  2 Na   -0.08732   -0.42617   -0.16794
  3 Na    0.41777   -0.19833    0.05465
  4 Na   -0.38191    0.14216    0.04263
  5 Na    0.16910   -0.14753    0.20203
  6 Na   -0.00719   -0.16272   -0.25513
  7 Na    0.09608    0.39302    0.05500

System changes: positions 

Initializing position-dependent things.

Density initialized from wave functions
           .--------------------------------------.  
          /|                                      |  
         / |                                      |  
        /  |                                      |  
       /   |                                      |  
      /    |                                      |  
     /     |                                      |  
    /      |                                      |  
   /       |                                      |  
  /        |                                      |  
 *         |                                      |  
 |         |                                      |  
 |         |            Na                        |  
 |         |       Na       Na                    |  
 |         |                                      |  
 |         |                  Na                  |  
 |         |           Na                         |  
 |         |           Na     Na                  |  
 |         |                                      |  
 |         |                Na                    |  
 |         .--------------------------------------.  
 |        /                                      /   
 |       /                                      /    
 |      /                                      /     
 |     /                                      /      
 |    /                                      /       
 |   /                                      /        
 |  /                                      /         
 | /                                      /          
 |/                                      /           
 *--------------------------------------*            

Positions:
   0 Na     6.729496    8.195753    6.691013    ( 0.0000,  0.0000,  0.0000)
   1 Na     8.772370    8.777944    9.522388    ( 0.0000,  0.0000,  0.0000)
   2 Na     7.717224    5.476323    8.341345    ( 0.0000,  0.0000,  0.0000)
   3 Na    10.170102    7.002981    7.076954    ( 0.0000,  0.0000,  0.0000)
   4 Na     5.475587    7.888385    9.456488    ( 0.0000,  0.0000,  0.0000)
   5 Na     7.831177    6.490594   11.456151    ( 0.0000,  0.0000,  0.0000)
   6 Na     8.832161    8.272651    4.363992    ( 0.0000,  0.0000,  0.0000)
   7 Na     9.342794   10.373332    6.981356    ( 0.0000,  0.0000,  0.0000)

Unit cell:
           periodic     x           y           z      points  spacing
  1. axis:    no    16.000000    0.000000    0.000000    64     0.2500
  2. axis:    no     0.000000   16.000000    0.000000    64     0.2500
  3. axis:    no     0.000000    0.000000   16.000000    64     0.2500

  Lengths:  16.000000  16.000000  16.000000
  Angles:   90.000000  90.000000  90.000000

Effective grid spacing dv^(1/3) = 0.2500

                     log10-error:    total        iterations:
           time      wfs    density  energy       fermi  poisson
iter:   1  14:30:33          +inf    -6.355036    4      1      
iter:   2  14:30:35         -1.48    -6.354126    3      1      
iter:   3  14:30:36         -1.99    -6.354667    2      1      
iter:   4  14:30:37         -2.23    -6.354842    2      1      
iter:   5  14:30:38         -2.55    -6.354694    2      1      
iter:   6  14:30:40         -2.94    -6.354672    2      1      
iter:   7  14:30:41         -3.16    -6.354662    2      1      
iter:   8  14:30:42         -3.41    -6.354654    2      1      
iter:   9  14:30:44         -3.81    -6.354652    2      1      
iter:  10  14:30:45         -4.03    -6.354652    2      1      

Converged after 10 iterations.

Dipole moment: (0.030583, -0.054687, -0.014238) |e|*Ang

Energy contributions relative to reference atoms: (reference = -35189.668405)

Kinetic:        +34.937788
Potential:      -29.504941
External:        +0.000000
XC:             -11.813533
Entropy (-ST):   -0.040959
Local:           +0.046513
--------------------------
Free energy:     -6.375131
Extrapolated:    -6.354652

Fermi level: -2.64739

 Band  Eigenvalues  Occupancy
    0     -4.94682    2.00000
    1     -3.91764    2.00000
    2     -2.84495    1.96227
    3     -2.82500    1.94428
    4     -2.49661    0.09346
    5     -1.65360    0.00000
    6     -1.58257    0.00000
    7     -0.97308    0.00000
    8      0.93626    0.00000
    9      1.16598    0.00000

Gap: 0.328 eV
Transition (v -> c):
  (s=0, k=0, n=3, [0.00, 0.00, 0.00]) -> (s=0, k=0, n=4, [0.00, 0.00, 0.00])

Forces in eV/Ang:
  0 Na   -0.23534    0.06574   -0.11295
  1 Na    0.09789    0.19396    0.15885
  2 Na   -0.07915   -0.20657   -0.11771
  3 Na    0.22972   -0.07598    0.06570
  4 Na   -0.18251    0.07891    0.02410
  5 Na    0.13019   -0.09862    0.02995
  6 Na    0.00087   -0.15158   -0.07339
  7 Na    0.03694    0.19445    0.02670

System changes: positions 

Initializing position-dependent things.

Density initialized from wave functions
           .--------------------------------------.  
          /|                                      |  
         / |                                      |  
        /  |                                      |  
       /   |                                      |  
      /    |                                      |  
     /     |                                      |  
    /      |                                      |  
   /       |                                      |  
  /        |                                      |  
 *         |                                      |  
 |         |                                      |  
 |         |            Na  Na                    |  
 |         |       Na                             |  
 |         |                                      |  
 |         |                  Na                  |  
 |         |           Na                         |  
 |         |          Na      Na                  |  
 |         |                                      |  
 |         |                Na                    |  
 |         .--------------------------------------.  
 |        /                                      /   
 |       /                                      /    
 |      /                                      /     
 |     /                                      /      
 |    /                                      /       
 |   /                                      /        
 |  /                                      /         
 | /                                      /          
 |/                                      /           
 *--------------------------------------*            

Positions:
   0 Na     6.639720    8.215409    6.645833    ( 0.0000,  0.0000,  0.0000)
   1 Na     8.814435    8.848768    9.583548    ( 0.0000,  0.0000,  0.0000)
   2 Na     7.695096    5.387049    8.302203    ( 0.0000,  0.0000,  0.0000)
   3 Na    10.260569    6.963468    7.092654    ( 0.0000,  0.0000,  0.0000)
   4 Na     5.395834    7.919272    9.465763    ( 0.0000,  0.0000,  0.0000)
   5 Na     7.871788    6.456757   11.491193    ( 0.0000,  0.0000,  0.0000)
   6 Na     8.831137    8.230752    4.315884    ( 0.0000,  0.0000,  0.0000)
   7 Na     9.361901   10.456190    6.992919    ( 0.0000,  0.0000,  0.0000)

Unit cell:
           periodic     x           y           z      points  spacing
  1. axis:    no    16.000000    0.000000    0.000000    64     0.2500
  2. axis:    no     0.000000   16.000000    0.000000    64     0.2500
  3. axis:    no     0.000000    0.000000   16.000000    64     0.2500

  Lengths:  16.000000  16.000000  16.000000
  Angles:   90.000000  90.000000  90.000000

Effective grid spacing dv^(1/3) = 0.2500

                     log10-error:    total        iterations:
           time      wfs    density  energy       fermi  poisson
iter:   1  14:30:47          +inf    -6.475491    4      1      
iter:   2  14:30:48         -1.53    -6.473851    3      1      
iter:   3  14:30:50         -2.05    -6.474271    2      1      
iter:   4  14:30:51         -2.34    -6.474464    2      1      
iter:   5  14:30:52         -2.61    -6.474412    2      1      
iter:   6  14:30:53         -3.02    -6.474405    2      1      
iter:   7  14:30:55         -3.27    -6.474397    2      1      
iter:   8  14:30:56         -3.54    -6.474391    2      1      
iter:   9  14:30:57         -3.86    -6.474389    2      1      
iter:  10  14:30:58         -4.09    -6.474388    2      1      

Converged after 10 iterations.

Dipole moment: (0.040617, -0.073602, -0.018541) |e|*Ang

Energy contributions relative to reference atoms: (reference = -35189.668405)

Kinetic:        +29.993569
Potential:      -25.737180
External:        +0.000000
XC:             -10.757723
Entropy (-ST):   -0.026694
Local:           +0.040294
--------------------------
Free energy:     -6.487735
Extrapolated:    -6.474388

Fermi level: -2.63099

 Band  Eigenvalues  Occupancy
    0     -4.82962    2.00000
    1     -3.83921    2.00000
    2     -2.86209    1.98052
    3     -2.83277    1.96526
    4     -2.45197    0.05421
    5     -1.69296    0.00000
    6     -1.59820    0.00000
    7     -1.00366    0.00000
    8      1.21978    0.00000
    9      1.34475    0.00000

Gap: 0.381 eV
Transition (v -> c):
  (s=0, k=0, n=3, [0.00, 0.00, 0.00]) -> (s=0, k=0, n=4, [0.00, 0.00, 0.00])

Forces in eV/Ang:
  0 Na   -0.13195    0.05720   -0.05094
  1 Na    0.03586    0.12149    0.08233
  2 Na   -0.06009   -0.06648   -0.08990
  3 Na    0.10130   -0.00878    0.07443
  4 Na   -0.05522    0.03975    0.01022
  5 Na    0.10273   -0.06650   -0.08188
  6 Na    0.00782   -0.14112    0.04445
  7 Na   -0.00056    0.06753    0.00997

System changes: positions 

Initializing position-dependent things.

Density initialized from wave functions
           .--------------------------------------.  
          /|                                      |  
         / |                                      |  
        /  |                                      |  
       /   |                                      |  
      /    |                                      |  
     /     |                                      |  
    /      |                                      |  
   /       |                                      |  
  /        |                                      |  
 *         |                                      |  
 |         |                                      |  
 |         |            Na  Na                    |  
 |         |       Na                             |  
 |         |                                      |  
 |         |                  Na                  |  
 |         |           Na                         |  
 |         |          Na       Na                 |  
 |         |                                      |  
 |         |                                      |  
 |         .----------------Na--------------------.  
 |        /                                      /   
 |       /                                      /    
 |      /                                      /     
 |     /                                      /      
 |    /                                      /       
 |   /                                      /        
 |  /                                      /         
 | /                                      /          
 |/                                      /           
 *--------------------------------------*            

Positions:
   0 Na     6.559672    8.239668    6.608594    ( 0.0000,  0.0000,  0.0000)
   1 Na     8.845942    8.915965    9.636901    ( 0.0000,  0.0000,  0.0000)
   2 Na     7.666775    5.321216    8.259774    ( 0.0000,  0.0000,  0.0000)
   3 Na    10.336120    6.940687    7.118584    ( 0.0000,  0.0000,  0.0000)
   4 Na     5.337857    7.945813    9.473658    ( 0.0000,  0.0000,  0.0000)
   5 Na     7.918942    6.422007   11.492590    ( 0.0000,  0.0000,  0.0000)
   6 Na     8.832150    8.173960    4.298458    ( 0.0000,  0.0000,  0.0000)
   7 Na     9.372552   10.518660    7.001590    ( 0.0000,  0.0000,  0.0000)

Unit cell:
           periodic     x           y           z      points  spacing
  1. axis:    no    16.000000    0.000000    0.000000    64     0.2500
  2. axis:    no     0.000000   16.000000    0.000000    64     0.2500
  3. axis:    no     0.000000    0.000000   16.000000    64     0.2500

  Lengths:  16.000000  16.000000  16.000000
  Angles:   90.000000  90.000000  90.000000

Effective grid spacing dv^(1/3) = 0.2500

                     log10-error:    total        iterations:
           time      wfs    density  energy       fermi  poisson
iter:   1  14:31:01          +inf    -6.531263    3      1      
iter:   2  14:31:02         -1.60    -6.529376    3      1      
iter:   3  14:31:03         -2.09    -6.529567    2      1      
iter:   4  14:31:04         -2.41    -6.529711    2      1      
iter:   5  14:31:06         -2.70    -6.529697    2      1      
iter:   6  14:31:07         -3.13    -6.529690    2      1      
iter:   7  14:31:08         -3.42    -6.529687    2      1      
iter:   8  14:31:09         -3.68    -6.529684    2      1      
iter:   9  14:31:11         -3.96    -6.529682    2      1      
iter:  10  14:31:12         -4.18    -6.529682    2      1      

Converged after 10 iterations.

Dipole moment: (0.049489, -0.090522, -0.022158) |e|*Ang

Energy contributions relative to reference atoms: (reference = -35189.668405)

Kinetic:        +26.762947
Potential:      -23.283774
External:        +0.000000
XC:             -10.037527
Entropy (-ST):   -0.015950
Local:           +0.036647
--------------------------
Free energy:     -6.537657
Extrapolated:    -6.529682

Fermi level: -2.61704

 Band  Eigenvalues  Occupancy
    0     -4.74468    2.00000
    1     -3.77811    2.00000
    2     -2.88603    1.99083
    3     -2.84791    1.98044
    4     -2.40563    0.02874
    5     -1.73041    0.00000
    6     -1.61167    0.00000
    7     -1.03457    0.00000
    8      1.50247    0.00000
    9      1.51628    0.00000

Gap: 0.442 eV
Transition (v -> c):
  (s=0, k=0, n=3, [0.00, 0.00, 0.00]) -> (s=0, k=0, n=4, [0.00, 0.00, 0.00])

Forces in eV/Ang:
  0 Na   -0.07395    0.05179   -0.01279
  1 Na    0.00101    0.08331    0.03676
  2 Na   -0.04168    0.01918   -0.07701
  3 Na    0.01808    0.02506    0.08410
  4 Na    0.02054    0.01516    0.00142
  5 Na    0.08518   -0.04756   -0.14644
  6 Na    0.01162   -0.13334    0.11306
  7 Na   -0.02330   -0.01018    0.00034

System changes: positions 

Initializing position-dependent things.

Density initialized from wave functions
           .--------------------------------------.  
          /|                                      |  
         / |                                      |  
        /  |                                      |  
       /   |                                      |  
      /    |                                      |  
     /     |                                      |  
    /      |                                      |  
   /       |                                      |  
  /        |                                      |  
 *         |                                      |  
 |         |                                      |  
 |         |            Na  Na                    |  
 |         |       Na                             |  
 |         |                                      |  
 |         |                  Na                  |  
 |         |           Na                         |  
 |         |          Na       Na                 |  
 |         |                                      |  
 |         |                                      |  
 |         .----------------Na--------------------.  
 |        /                                      /   
 |       /                                      /    
 |      /                                      /     
 |     /                                      /      
 |    /                                      /       
 |   /                                      /        
 |  /                                      /         
 | /                                      /          
 |/                                      /           
 *--------------------------------------*            

Positions:
   0 Na     6.493186    8.267396    6.582478    ( 0.0000,  0.0000,  0.0000)
   1 Na     8.865037    8.976902    9.678655    ( 0.0000,  0.0000,  0.0000)
   2 Na     7.637285    5.285409    8.215284    ( 0.0000,  0.0000,  0.0000)
   3 Na    10.388184    6.934412    7.154846    ( 0.0000,  0.0000,  0.0000)
   4 Na     5.307388    7.965881    9.479071    ( 0.0000,  0.0000,  0.0000)
   5 Na     7.969355    6.388805   11.457084    ( 0.0000,  0.0000,  0.0000)
   6 Na     8.835550    8.105595    4.315818    ( 0.0000,  0.0000,  0.0000)
   7 Na     9.373313   10.554625    7.006850    ( 0.0000,  0.0000,  0.0000)

Unit cell:
           periodic     x           y           z      points  spacing
  1. axis:    no    16.000000    0.000000    0.000000    64     0.2500
  2. axis:    no     0.000000   16.000000    0.000000    64     0.2500
  3. axis:    no     0.000000    0.000000   16.000000    64     0.2500

  Lengths:  16.000000  16.000000  16.000000
  Angles:   90.000000  90.000000  90.000000

Effective grid spacing dv^(1/3) = 0.2500

                     log10-error:    total        iterations:
           time      wfs    density  energy       fermi  poisson
iter:   1  14:31:14          +inf    -6.571421    3      1      
iter:   2  14:31:15         -1.70    -6.569869    3      1      
iter:   3  14:31:17         -2.16    -6.569906    2      1      
iter:   4  14:31:18         -2.48    -6.569988    2      1      
iter:   5  14:31:19         -2.83    -6.569983    2      1      
iter:   6  14:31:21         -3.22    -6.569975    1      1      
iter:   7  14:31:22         -3.56    -6.569974    2      1      
iter:   8  14:31:23         -3.80    -6.569973    2      1      
iter:   9  14:31:24         -4.04    -6.569972    2      1      

Converged after 9 iterations.

Dipole moment: (0.056068, -0.102906, -0.024575) |e|*Ang

Energy contributions relative to reference atoms: (reference = -35189.668405)

Kinetic:        +25.082563
Potential:      -22.027721
External:        +0.000000
XC:              -9.655577
Entropy (-ST):   -0.008776
Local:           +0.035151
--------------------------
Free energy:     -6.574360
Extrapolated:    -6.569972

Fermi level: -2.60268

 Band  Eigenvalues  Occupancy
    0     -4.69567    2.00000
    1     -3.73543    2.00000
    2     -2.91208    1.99590
    3     -2.86775    1.99008
    4     -2.35501    0.01402
    5     -1.75876    0.00000
    6     -1.61857    0.00000
    7     -1.05930    0.00000
    8      1.62961    0.00000
    9      1.70125    0.00000

Gap: 0.513 eV
Transition (v -> c):
  (s=0, k=0, n=3, [0.00, 0.00, 0.00]) -> (s=0, k=0, n=4, [0.00, 0.00, 0.00])

Forces in eV/Ang:
  0 Na   -0.04215    0.04970    0.00652
  1 Na   -0.01739    0.06187    0.01361
  2 Na   -0.02903    0.06648   -0.07674
  3 Na   -0.02608    0.03914    0.09674
  4 Na    0.06104    0.00155   -0.00082
  5 Na    0.07547   -0.03825   -0.17453
  6 Na    0.01266   -0.12905    0.14430
  7 Na   -0.03531   -0.05002   -0.00745

System changes: positions 

Initializing position-dependent things.

Density initialized from wave functions
           .--------------------------------------.  
          /|                                      |  
         / |                                      |  
        /  |                                      |  
       /   |                                      |  
      /    |                                      |  
     /     |                                      |  
    /      |                                      |  
   /       |                                      |  
  /        |                                      |  
 *         |                                      |  
 |         |                                      |  
 |         |             Na Na                    |  
 |         |       Na                             |  
 |         |                                      |  
 |         |                  Na                  |  
 |         |           Na                         |  
 |         |          Na       Na                 |  
 |         |                                      |  
 |         |                                      |  
 |         .----------------Na--------------------.  
 |        /                                      /   
 |       /                                      /    
 |      /                                      /     
 |     /                                      /      
 |    /                                      /       
 |   /                                      /        
 |  /                                      /         
 | /                                      /          
 |/                                      /           
 *--------------------------------------*            

Positions:
   0 Na     6.435572    8.300030    6.565651    ( 0.0000,  0.0000,  0.0000)
   1 Na     8.873666    9.035660    9.711675    ( 0.0000,  0.0000,  0.0000)
   2 Na     7.607507    5.277192    8.164648    ( 0.0000,  0.0000,  0.0000)
   3 Na    10.419064    6.941466    7.204828    ( 0.0000,  0.0000,  0.0000)
   4 Na     5.301891    7.980615    9.482611    ( 0.0000,  0.0000,  0.0000)
   5 Na     8.025040    6.355348   11.385445    ( 0.0000,  0.0000,  0.0000)
   6 Na     8.841343    8.023089    4.366571    ( 0.0000,  0.0000,  0.0000)
   7 Na     9.364601   10.567018    7.008733    ( 0.0000,  0.0000,  0.0000)

Unit cell:
           periodic     x           y           z      points  spacing
  1. axis:    no    16.000000    0.000000    0.000000    64     0.2500
  2. axis:    no     0.000000   16.000000    0.000000    64     0.2500
  3. axis:    no     0.000000    0.000000   16.000000    64     0.2500

  Lengths:  16.000000  16.000000  16.000000
  Angles:   90.000000  90.000000  90.000000

Effective grid spacing dv^(1/3) = 0.2500

                     log10-error:    total        iterations:
           time      wfs    density  energy       fermi  poisson
iter:   1  14:31:26          +inf    -6.624643    3      1      
iter:   2  14:31:28         -1.76    -6.623171    2      1      
iter:   3  14:31:29         -2.18    -6.623102    1      1      
iter:   4  14:31:30         -2.46    -6.623127    2      1      
iter:   5  14:31:32         -2.95    -6.623121    2      1      
iter:   6  14:31:33         -3.25    -6.623113    1      1      
iter:   7  14:31:34         -3.68    -6.623112    1      1      
iter:   8  14:31:35         -3.99    -6.623112    1      1      
iter:   9  14:31:37         -4.34    -6.623112    1      1      

Converged after 9 iterations.

Dipole moment: (0.060235, -0.110545, -0.025856) |e|*Ang

Energy contributions relative to reference atoms: (reference = -35189.668405)

Kinetic:        +24.568769
Potential:      -21.682693
External:        +0.000000
XC:              -9.541023
Entropy (-ST):   -0.004211
Local:           +0.033941
--------------------------
Free energy:     -6.625218
Extrapolated:    -6.623112

Fermi level: -2.58528

 Band  Eigenvalues  Occupancy
    0     -4.67609    2.00000
    1     -3.70509    2.00000
    2     -2.94025    1.99835
    3     -2.89268    1.99573
    4     -2.29426    0.00592
    5     -1.77717    0.00000
    6     -1.61785    0.00000
    7     -1.08033    0.00000
    8      1.67705    0.00000
    9      1.80267    0.00000

Gap: 0.598 eV
Transition (v -> c):
  (s=0, k=0, n=3, [0.00, 0.00, 0.00]) -> (s=0, k=0, n=4, [0.00, 0.00, 0.00])

Forces in eV/Ang:
  0 Na   -0.02440    0.05011    0.01299
  1 Na   -0.02864    0.04984    0.00476
  2 Na   -0.02431    0.08826   -0.08902
  3 Na   -0.04500    0.04263    0.11382
  4 Na    0.08037   -0.00683    0.00394
  5 Na    0.07115   -0.03343   -0.17915
  6 Na    0.00998   -0.12494    0.15183
  7 Na   -0.04068   -0.06816   -0.01758

System changes: positions 

Initializing position-dependent things.

Density initialized from wave functions
           .--------------------------------------.  
          /|                                      |  
         / |                                      |  
        /  |                                      |  
       /   |                                      |  
      /    |                                      |  
     /     |                                      |  
    /      |                                      |  
   /       |                                      |  
  /        |                                      |  
 *         |                                      |  
 |         |                                      |  
 |         |             Na Na                    |  
 |         |       Na                             |  
 |         |                                      |  
 |         |                  Na                  |  
 |         |                                      |  
 |         |          NNa      Na                 |  
 |         |                                      |  
 |         |                Na                    |  
 |         .--------------------------------------.  
 |        /                                      /   
 |       /                                      /    
 |      /                                      /     
 |     /                                      /      
 |    /                                      /       
 |   /                                      /        
 |  /                                      /         
 | /                                      /          
 |/                                      /           
 *--------------------------------------*            

Positions:
   0 Na     6.389752    8.335901    6.558201    ( 0.0000,  0.0000,  0.0000)
   1 Na     8.871534    9.089254    9.734990    ( 0.0000,  0.0000,  0.0000)
   2 Na     7.580048    5.296166    8.107471    ( 0.0000,  0.0000,  0.0000)
   3 Na    10.427439    6.959178    7.268486    ( 0.0000,  0.0000,  0.0000)
   4 Na     5.320736    7.988896    9.485397    ( 0.0000,  0.0000,  0.0000)
   5 Na     8.082588    6.323510   11.285368    ( 0.0000,  0.0000,  0.0000)
   6 Na     8.848423    7.932183    4.444668    ( 0.0000,  0.0000,  0.0000)
   7 Na     9.347299   10.556120    7.005851    ( 0.0000,  0.0000,  0.0000)

Unit cell:
           periodic     x           y           z      points  spacing
  1. axis:    no    16.000000    0.000000    0.000000    64     0.2500
  2. axis:    no     0.000000   16.000000    0.000000    64     0.2500
  3. axis:    no     0.000000    0.000000   16.000000    64     0.2500

  Lengths:  16.000000  16.000000  16.000000
  Angles:   90.000000  90.000000  90.000000

Effective grid spacing dv^(1/3) = 0.2500

                     log10-error:    total        iterations:
           time      wfs    density  energy       fermi  poisson
iter:   1  14:31:39          +inf    -6.696232    3      1      
iter:   2  14:31:40         -1.80    -6.694826    2      1      
iter:   3  14:31:41         -2.18    -6.694676    2      1      
iter:   4  14:31:43         -2.42    -6.694647    2      1      
iter:   5  14:31:44         -3.04    -6.694643    1      1      
iter:   6  14:31:45         -3.24    -6.694638    2      1      
iter:   7  14:31:46         -3.84    -6.694638    1      1      
iter:   8  14:31:48         -4.13    -6.694638    1      1      

Converged after 8 iterations.

Dipole moment: (0.061406, -0.112562, -0.025840) |e|*Ang

Energy contributions relative to reference atoms: (reference = -35189.668405)

Kinetic:        +25.083896
Potential:      -22.143253
External:        +0.000000
XC:              -9.668338
Entropy (-ST):   -0.001803
Local:           +0.033958
--------------------------
Free energy:     -6.695540
Extrapolated:    -6.694638

Fermi level: -2.56450

 Band  Eigenvalues  Occupancy
    0     -4.68359    2.00000
    1     -3.68509    2.00000
    2     -2.96852    1.99938
    3     -2.92074    1.99839
    4     -2.22455    0.00223
    5     -1.78276    0.00000
    6     -1.60886    0.00000
    7     -1.10018    0.00000
    8      1.66014    0.00000
    9      1.80890    0.00000

Gap: 0.696 eV
Transition (v -> c):
  (s=0, k=0, n=3, [0.00, 0.00, 0.00]) -> (s=0, k=0, n=4, [0.00, 0.00, 0.00])

Forces in eV/Ang:
  0 Na   -0.01873    0.05470    0.00839
  1 Na   -0.03505    0.04631    0.00931
  2 Na   -0.02851    0.08950   -0.11348
  3 Na   -0.04034    0.03971    0.13567
  4 Na    0.08219   -0.01095    0.01532
  5 Na    0.07605   -0.03088   -0.16567
  6 Na    0.00282   -0.12138    0.14029
  7 Na   -0.04061   -0.06869   -0.03033

System changes: positions 

Initializing position-dependent things.

Density initialized from wave functions
           .--------------------------------------.  
          /|                                      |  
         / |                                      |  
        /  |                                      |  
       /   |                                      |  
      /    |                                      |  
     /     |                                      |  
    /      |                                      |  
   /       |                                      |  
  /        |                                      |  
 *         |                                      |  
 |         |                                      |  
 |         |             Na Na                    |  
 |         |       Na                             |  
 |         |                                      |  
 |         |                  Na                  |  
 |         |                   Na                 |  
 |         |          NNa                         |  
 |         |                                      |  
 |         |               Na                     |  
 |         .--------------------------------------.  
 |        /                                      /   
 |       /                                      /    
 |      /                                      /     
 |     /                                      /      
 |    /                                      /       
 |   /                                      /        
 |  /                                      /         
 | /                                      /          
 |/                                      /           
 *--------------------------------------*            

Positions:
   0 Na     6.356585    8.372041    6.556837    ( 0.0000,  0.0000,  0.0000)
   1 Na     8.861110    9.134544    9.750777    ( 0.0000,  0.0000,  0.0000)
   2 Na     7.556078    5.332575    8.045098    ( 0.0000,  0.0000,  0.0000)
   3 Na    10.420400    6.981630    7.341244    ( 0.0000,  0.0000,  0.0000)
   4 Na     5.355015    7.991263    9.489753    ( 0.0000,  0.0000,  0.0000)
   5 Na     8.137679    6.295737   11.176939    ( 0.0000,  0.0000,  0.0000)
   6 Na     8.854383    7.843560    4.532566    ( 0.0000,  0.0000,  0.0000)
   7 Na     9.325527   10.530139    6.997360    ( 0.0000,  0.0000,  0.0000)

Unit cell:
           periodic     x           y           z      points  spacing
  1. axis:    no    16.000000    0.000000    0.000000    64     0.2500
  2. axis:    no     0.000000   16.000000    0.000000    64     0.2500
  3. axis:    no     0.000000    0.000000   16.000000    64     0.2500

  Lengths:  16.000000  16.000000  16.000000
  Angles:   90.000000  90.000000  90.000000

Effective grid spacing dv^(1/3) = 0.2500

                     log10-error:    total        iterations:
           time      wfs    density  energy       fermi  poisson
iter:   1  14:31:50          +inf    -6.775517    2      1      
iter:   2  14:31:51         -1.84    -6.774217    2      1      
iter:   3  14:31:52         -2.18    -6.774021    2      1      
iter:   4  14:31:54         -2.42    -6.773966    2      1      
iter:   5  14:31:55         -3.06    -6.773964    1      1      
iter:   6  14:31:56         -3.24    -6.773962    2      1      
iter:   7  14:31:58         -4.02    -6.773962    1      1      

Converged after 7 iterations.

Dipole moment: (0.060250, -0.110384, -0.024792) |e|*Ang

Energy contributions relative to reference atoms: (reference = -35189.668405)

Kinetic:        +26.197919
Potential:      -23.069347
External:        +0.000000
XC:              -9.937151
Entropy (-ST):   -0.000757
Local:           +0.034996
--------------------------
Free energy:     -6.774340
Extrapolated:    -6.773962

Fermi level: -2.54220

 Band  Eigenvalues  Occupancy
    0     -4.70713    2.00000
    1     -3.67088    2.00000
    2     -2.99448    1.99976
    3     -2.94795    1.99940
    4     -2.15306    0.00083
    5     -1.77699    0.00000
    6     -1.59427    0.00000
    7     -1.12322    0.00000
    8      1.60760    0.00000
    9      1.75615    0.00000

Gap: 0.795 eV
Transition (v -> c):
  (s=0, k=0, n=3, [0.00, 0.00, 0.00]) -> (s=0, k=0, n=4, [0.00, 0.00, 0.00])

Forces in eV/Ang:
  0 Na   -0.02135    0.06240   -0.00090
  1 Na   -0.03818    0.04946    0.01962
  2 Na   -0.03782    0.07802   -0.14197
  3 Na   -0.02075    0.03260    0.16001
  4 Na    0.07531   -0.01220    0.02866
  5 Na    0.08618   -0.02944   -0.14127
  6 Na   -0.00700   -0.12336    0.11614
  7 Na   -0.03728   -0.05912   -0.04227

System changes: positions 

Initializing position-dependent things.

Density initialized from wave functions
           .--------------------------------------.  
          /|                                      |  
         / |                                      |  
        /  |                                      |  
       /   |                                      |  
      /    |                                      |  
     /     |                                      |  
    /      |                                      |  
   /       |                                      |  
  /        |                                      |  
 *         |                                      |  
 |         |                                      |  
 |         |             Na Na                    |  
 |         |       Na                             |  
 |         |                                      |  
 |         |                  Na                  |  
 |         |                   Na                 |  
 |         |          NNa                         |  
 |         |                                      |  
 |         |               Na                     |  
 |         .--------------------------------------.  
 |        /                                      /   
 |       /                                      /    
 |      /                                      /     
 |     /                                      /      
 |    /                                      /       
 |   /                                      /        
 |  /                                      /         
 | /                                      /          
 |/                                      /           
 *--------------------------------------*            

Positions:
   0 Na     6.330829    8.410216    6.557383    ( 0.0000,  0.0000,  0.0000)
   1 Na     8.844629    9.175452    9.764041    ( 0.0000,  0.0000,  0.0000)
   2 Na     7.532480    5.378241    7.972463    ( 0.0000,  0.0000,  0.0000)
   3 Na    10.407254    7.005518    7.426009    ( 0.0000,  0.0000,  0.0000)
   4 Na     5.398062    7.989511    9.498104    ( 0.0000,  0.0000,  0.0000)
   5 Na     8.193589    6.270553   11.067725    ( 0.0000,  0.0000,  0.0000)
   6 Na     8.857595    7.755427    4.622176    ( 0.0000,  0.0000,  0.0000)
   7 Na     9.301387   10.496263    6.982496    ( 0.0000,  0.0000,  0.0000)

Unit cell:
           periodic     x           y           z      points  spacing
  1. axis:    no    16.000000    0.000000    0.000000    64     0.2500
  2. axis:    no     0.000000   16.000000    0.000000    64     0.2500
  3. axis:    no     0.000000    0.000000   16.000000    64     0.2500

  Lengths:  16.000000  16.000000  16.000000
  Angles:   90.000000  90.000000  90.000000

Effective grid spacing dv^(1/3) = 0.2500

                     log10-error:    total        iterations:
           time      wfs    density  energy       fermi  poisson
iter:   1  14:32:00          +inf    -6.860005    2      1      
iter:   2  14:32:01         -1.85    -6.858705    2      1      
iter:   3  14:32:02         -2.17    -6.858474    2      1      
iter:   4  14:32:03         -2.42    -6.858412    2      1      
iter:   5  14:32:05         -3.06    -6.858410    1      1      
iter:   6  14:32:06         -3.25    -6.858409    2      1      
iter:   7  14:32:07         -4.04    -6.858409    1      1      

Converged after 7 iterations.

Dipole moment: (0.058050, -0.106462, -0.023440) |e|*Ang

Energy contributions relative to reference atoms: (reference = -35189.668405)

Kinetic:        +27.513725
Potential:      -24.150526
External:        +0.000000
XC:             -10.257687
Entropy (-ST):   -0.000314
Local:           +0.036235
--------------------------
Free energy:     -6.858566
Extrapolated:    -6.858409

Fermi level: -2.51828

 Band  Eigenvalues  Occupancy
    0     -4.73617    2.00000
    1     -3.65610    2.00000
    2     -3.01915    1.99991
    3     -2.97355    1.99978
    4     -2.07980    0.00031
    5     -1.76279    0.00000
    6     -1.57596    0.00000
    7     -1.15520    0.00000
    8      1.54422    0.00000
    9      1.68024    0.00000

Gap: 0.894 eV
Transition (v -> c):
  (s=0, k=0, n=3, [0.00, 0.00, 0.00]) -> (s=0, k=0, n=4, [0.00, 0.00, 0.00])

Forces in eV/Ang:
  0 Na   -0.02825    0.07152   -0.00933
  1 Na   -0.04055    0.05820    0.03119
  2 Na   -0.04842    0.05987   -0.16495
  3 Na    0.00340    0.02397    0.18082
  4 Na    0.06170   -0.01285    0.03867
  5 Na    0.09786   -0.02796   -0.12071
  6 Na   -0.01585   -0.12572    0.09456
  7 Na   -0.03044   -0.04513   -0.05073

System changes: positions 

Initializing position-dependent things.

Density initialized from wave functions
           .--------------------------------------.  
          /|                                      |  
         / |                                      |  
        /  |                                      |  
       /   |                                      |  
      /    |                                      |  
     /     |                                      |  
    /      |                                      |  
   /       |                                      |  
  /        |                                      |  
 *         |                                      |  
 |         |                                      |  
 |         |             Na Na                    |  
 |         |       Na                             |  
 |         |                                      |  
 |         |                  Na                  |  
 |         |                   Na                 |  
 |         |          NNa                         |  
 |         |                                      |  
 |         |               Na                     |  
 |         .--------------------------------------.  
 |        /                                      /   
 |       /                                      /    
 |      /                                      /     
 |     /                                      /      
 |    /                                      /       
 |   /                                      /        
 |  /                                      /         
 | /                                      /          
 |/                                      /           
 *--------------------------------------*            

Positions:
   0 Na     6.310309    8.449749    6.557353    ( 0.0000,  0.0000,  0.0000)
   1 Na     8.824193    9.212817    9.777355    ( 0.0000,  0.0000,  0.0000)
   2 Na     7.508161    5.424607    7.890987    ( 0.0000,  0.0000,  0.0000)
   3 Na    10.395317    7.027422    7.519620    ( 0.0000,  0.0000,  0.0000)
   4 Na     5.442435    7.984779    9.511177    ( 0.0000,  0.0000,  0.0000)
   5 Na     8.249660    6.248677   10.967914    ( 0.0000,  0.0000,  0.0000)
   6 Na     8.856834    7.671705    4.703902    ( 0.0000,  0.0000,  0.0000)
   7 Na     9.278082   10.461345    6.961870    ( 0.0000,  0.0000,  0.0000)

Unit cell:
           periodic     x           y           z      points  spacing
  1. axis:    no    16.000000    0.000000    0.000000    64     0.2500
  2. axis:    no     0.000000   16.000000    0.000000    64     0.2500
  3. axis:    no     0.000000    0.000000   16.000000    64     0.2500

  Lengths:  16.000000  16.000000  16.000000
  Angles:   90.000000  90.000000  90.000000

Effective grid spacing dv^(1/3) = 0.2500

                     log10-error:    total        iterations:
           time      wfs    density  energy       fermi  poisson
iter:   1  14:32:09          +inf    -6.943878    2      1      
iter:   2  14:32:11         -1.87    -6.942698    2      1      
iter:   3  14:32:12         -2.19    -6.942475    2      1      
iter:   4  14:32:13         -2.45    -6.942420    2      1      
iter:   5  14:32:15         -3.06    -6.942419    1      1      
iter:   6  14:32:16         -3.26    -6.942418    1      1      
iter:   7  14:32:17         -4.07    -6.942417    1      1      

Converged after 7 iterations.

Dipole moment: (0.055763, -0.102482, -0.022233) |e|*Ang

Energy contributions relative to reference atoms: (reference = -35189.668405)

Kinetic:        +28.678113
Potential:      -25.108186
External:        +0.000000
XC:             -10.549702
Entropy (-ST):   -0.000136
Local:           +0.037426
--------------------------
Free energy:     -6.942486
Extrapolated:    -6.942417

Fermi level: -2.49420

 Band  Eigenvalues  Occupancy
    0     -4.76175    2.00000
    1     -3.63809    2.00000
    2     -3.04157    1.99996
    3     -2.99550    1.99991
    4     -2.00941    0.00012
    5     -1.74341    0.00000
    6     -1.55667    0.00000
    7     -1.19644    0.00000
    8      1.48702    0.00000
    9      1.60995    0.00000

Gap: 0.986 eV
Transition (v -> c):
  (s=0, k=0, n=3, [0.00, 0.00, 0.00]) -> (s=0, k=0, n=4, [0.00, 0.00, 0.00])

Forces in eV/Ang:
  0 Na   -0.03754    0.07947   -0.01271
  1 Na   -0.04151    0.06845    0.03820
  2 Na   -0.05536    0.04233   -0.17618
  3 Na    0.02373    0.01683    0.18579
  4 Na    0.04836   -0.01456    0.04300
  5 Na    0.10433   -0.02894   -0.10503
  6 Na   -0.02117   -0.12707    0.08050
  7 Na   -0.02260   -0.03327   -0.05307

System changes: positions 

Initializing position-dependent things.

Density initialized from wave functions
           .--------------------------------------.  
          /|                                      |  
         / |                                      |  
        /  |                                      |  
       /   |                                      |  
      /    |                                      |  
     /     |                                      |  
    /      |                                      |  
   /       |                                      |  
  /        |                                      |  
 *         |                                      |  
 |         |                                      |  
 |         |                Na                    |  
 |         |       Na    Na                       |  
 |         |                                      |  
 |         |                  Na                  |  
 |         |          Na       Na                 |  
 |         |           Na                         |  
 |         |                                      |  
 |         |               Na                     |  
 |         .--------------------------------------.  
 |        /                                      /   
 |       /                                      /    
 |      /                                      /     
 |     /                                      /      
 |    /                                      /       
 |   /                                      /        
 |  /                                      /         
 | /                                      /          
 |/                                      /           
 *--------------------------------------*            

Positions:
   0 Na     6.291556    8.491508    6.555758    ( 0.0000,  0.0000,  0.0000)
   1 Na     8.801171    9.249459    9.792428    ( 0.0000,  0.0000,  0.0000)
   2 Na     7.481888    5.467230    7.801123    ( 0.0000,  0.0000,  0.0000)
   3 Na    10.388939    7.046197    7.620135    ( 0.0000,  0.0000,  0.0000)
   4 Na     5.484448    7.977886    9.528668    ( 0.0000,  0.0000,  0.0000)
   5 Na     8.306948    6.228986   10.879287    ( 0.0000,  0.0000,  0.0000)
   6 Na     8.852090    7.591315    4.775894    ( 0.0000,  0.0000,  0.0000)
   7 Na     9.257072   10.428793    6.936692    ( 0.0000,  0.0000,  0.0000)

Unit cell:
           periodic     x           y           z      points  spacing
  1. axis:    no    16.000000    0.000000    0.000000    64     0.2500
  2. axis:    no     0.000000   16.000000    0.000000    64     0.2500
  3. axis:    no     0.000000    0.000000   16.000000    64     0.2500

  Lengths:  16.000000  16.000000  16.000000
  Angles:   90.000000  90.000000  90.000000

Effective grid spacing dv^(1/3) = 0.2500

                     log10-error:    total        iterations:
           time      wfs    density  energy       fermi  poisson
iter:   1  14:32:19          +inf    -7.025770    2      1      
iter:   2  14:32:21         -1.89    -7.024699    2      1      
iter:   3  14:32:22         -2.20    -7.024488    2      1      
iter:   4  14:32:23         -2.48    -7.024441    2      1      
iter:   5  14:32:24         -3.05    -7.024440    1      1      
iter:   6  14:32:26         -3.25    -7.024439    1      1      
iter:   7  14:32:27         -4.09    -7.024439    1      1      

Converged after 7 iterations.

Dipole moment: (0.053705, -0.099215, -0.021087) |e|*Ang

Energy contributions relative to reference atoms: (reference = -35189.668405)

Kinetic:        +29.514106
Potential:      -25.804722
External:        +0.000000
XC:             -10.771948
Entropy (-ST):   -0.000062
Local:           +0.038156
--------------------------
Free energy:     -7.024470
Extrapolated:    -7.024439

Fermi level: -2.47070

 Band  Eigenvalues  Occupancy
    0     -4.77961    2.00000
    1     -3.61620    2.00000
    2     -3.06204    1.99999
    3     -3.01428    1.99996
    4     -1.94278    0.00005
    5     -1.72191    0.00000
    6     -1.53815    0.00000
    7     -1.24650    0.00000
    8      1.44169    0.00000
    9      1.56076    0.00000

Gap: 1.071 eV
Transition (v -> c):
  (s=0, k=0, n=3, [0.00, 0.00, 0.00]) -> (s=0, k=0, n=4, [0.00, 0.00, 0.00])

Forces in eV/Ang:
  0 Na   -0.04623    0.08462   -0.01021
  1 Na   -0.04122    0.07789    0.03836
  2 Na   -0.05575    0.02700   -0.16760
  3 Na    0.03461    0.01151    0.17432
  4 Na    0.03637   -0.01783    0.04060
  5 Na    0.10243   -0.02998   -0.09972
  6 Na   -0.01950   -0.12684    0.07198
  7 Na   -0.01270   -0.02625   -0.04927

System changes: positions 

Initializing position-dependent things.

Density initialized from wave functions
           .--------------------------------------.  
          /|                                      |  
         / |                                      |  
        /  |                                      |  
       /   |                                      |  
      /    |                                      |  
     /     |                                      |  
    /      |                                      |  
   /       |                                      |  
  /        |                                      |  
 *         |                                      |  
 |         |                                      |  
 |         |                Na                    |  
 |         |       Na    Na                       |  
 |         |                                      |  
 |         |                  Na                  |  
 |         |          Na       Na                 |  
 |         |           Na                         |  
 |         |                                      |  
 |         |               Na                     |  
 |         .--------------------------------------.  
 |        /                                      /   
 |       /                                      /    
 |      /                                      /     
 |     /                                      /      
 |    /                                      /       
 |   /                                      /        
 |  /                                      /         
 | /                                      /          
 |/                                      /           
 *--------------------------------------*            

Positions:
   0 Na     6.271537    8.536794    6.552730    ( 0.0000,  0.0000,  0.0000)
   1 Na     8.776194    9.288426    9.809913    ( 0.0000,  0.0000,  0.0000)
   2 Na     7.453035    5.503793    7.704277    ( 0.0000,  0.0000,  0.0000)
   3 Na    10.390010    7.061592    7.726047    ( 0.0000,  0.0000,  0.0000)
   4 Na     5.522238    7.969029    9.549670    ( 0.0000,  0.0000,  0.0000)
   5 Na     8.366405    6.210291   10.799424    ( 0.0000,  0.0000,  0.0000)
   6 Na     8.844309    7.511818    4.839208    ( 0.0000,  0.0000,  0.0000)
   7 Na     9.239469   10.399835    6.908247    ( 0.0000,  0.0000,  0.0000)

Unit cell:
           periodic     x           y           z      points  spacing
  1. axis:    no    16.000000    0.000000    0.000000    64     0.2500
  2. axis:    no     0.000000   16.000000    0.000000    64     0.2500
  3. axis:    no     0.000000    0.000000   16.000000    64     0.2500

  Lengths:  16.000000  16.000000  16.000000
  Angles:   90.000000  90.000000  90.000000

Effective grid spacing dv^(1/3) = 0.2500

                     log10-error:    total        iterations:
           time      wfs    density  energy       fermi  poisson
iter:   1  14:32:29          +inf    -7.102793    2      1      
iter:   2  14:32:30         -1.89    -7.101764    1      1      
iter:   3  14:32:32         -2.21    -7.101553    2      1      
iter:   4  14:32:33         -2.50    -7.101511    2      1      
iter:   5  14:32:34         -3.04    -7.101510    1      1      
iter:   6  14:32:36         -3.24    -7.101509    1      1      
iter:   7  14:32:37         -4.06    -7.101509    1      1      

Converged after 7 iterations.

Dipole moment: (0.051847, -0.096249, -0.020093) |e|*Ang

Energy contributions relative to reference atoms: (reference = -35189.668405)

Kinetic:        +29.975193
Potential:      -26.205257
External:        +0.000000
XC:             -10.909967
Entropy (-ST):   -0.000030
Local:           +0.038537
--------------------------
Free energy:     -7.101524
Extrapolated:    -7.101509

Fermi level: -2.44808

 Band  Eigenvalues  Occupancy
    0     -4.78851    2.00000
    1     -3.59105    2.00000
    2     -3.08089    1.99999
    3     -3.03147    1.99998
    4     -1.87906    0.00002
    5     -1.70123    0.00000
    6     -1.52153    0.00000
    7     -1.30430    0.00000
    8      1.40897    0.00000
    9      1.53865    0.00000

Gap: 1.152 eV
Transition (v -> c):
  (s=0, k=0, n=3, [0.00, 0.00, 0.00]) -> (s=0, k=0, n=4, [0.00, 0.00, 0.00])

Forces in eV/Ang:
  0 Na   -0.04971    0.08496   -0.00253
  1 Na   -0.04052    0.08268    0.03133
  2 Na   -0.04976    0.01655   -0.13634
  3 Na    0.03418    0.01008    0.14326
  4 Na    0.02742   -0.02364    0.03210
  5 Na    0.09049   -0.02979   -0.09863
  6 Na   -0.01158   -0.11545    0.07048
  7 Na   -0.00151   -0.02555   -0.04107

System changes: positions 

Initializing position-dependent things.

Density initialized from wave functions
           .--------------------------------------.  
          /|                                      |  
         / |                                      |  
        /  |                                      |  
       /   |                                      |  
      /    |                                      |  
     /     |                                      |  
    /      |                                      |  
   /       |                                      |  
  /        |                                      |  
 *         |                                      |  
 |         |                                      |  
 |         |                Na                    |  
 |         |        Na   Na                       |  
 |         |                                      |  
 |         |                  Na                  |  
 |         |          Na       Na                 |  
 |         |           Na                         |  
 |         |                                      |  
 |         |               Na                     |  
 |         .--------------------------------------.  
 |        /                                      /   
 |       /                                      /    
 |      /                                      /     
 |     /                                      /      
 |    /                                      /       
 |   /                                      /        
 |  /                                      /         
 | /                                      /          
 |/                                      /           
 *--------------------------------------*            

Positions:
   0 Na     6.250910    8.581219    6.549821    ( 0.0000,  0.0000,  0.0000)
   1 Na     8.752230    9.327321    9.827098    ( 0.0000,  0.0000,  0.0000)
   2 Na     7.425211    5.530624    7.614972    ( 0.0000,  0.0000,  0.0000)
   3 Na    10.397182    7.072951    7.822352    ( 0.0000,  0.0000,  0.0000)
   4 Na     5.551863    7.958840    9.570130    ( 0.0000,  0.0000,  0.0000)
   5 Na     8.421212    6.193573   10.732530    ( 0.0000,  0.0000,  0.0000)
   6 Na     8.836184    7.440725    4.890861    ( 0.0000,  0.0000,  0.0000)
   7 Na     9.227647   10.376599    6.881252    ( 0.0000,  0.0000,  0.0000)

Unit cell:
           periodic     x           y           z      points  spacing
  1. axis:    no    16.000000    0.000000    0.000000    64     0.2500
  2. axis:    no     0.000000   16.000000    0.000000    64     0.2500
  3. axis:    no     0.000000    0.000000   16.000000    64     0.2500

  Lengths:  16.000000  16.000000  16.000000
  Angles:   90.000000  90.000000  90.000000

Effective grid spacing dv^(1/3) = 0.2500

                     log10-error:    total        iterations:
           time      wfs    density  energy       fermi  poisson
iter:   1  14:32:39          +inf    -7.161366    2      1      
iter:   2  14:32:40         -1.93    -7.160530    1      1      
iter:   3  14:32:42         -2.25    -7.160358    2      1      
iter:   4  14:32:43         -2.56    -7.160324    2      1      
iter:   5  14:32:44         -3.09    -7.160323    1      1      
iter:   6  14:32:46         -3.28    -7.160323    1      1      
iter:   7  14:32:47         -4.05    -7.160323    1      1      

Converged after 7 iterations.

Dipole moment: (0.049814, -0.092823, -0.019200) |e|*Ang

Energy contributions relative to reference atoms: (reference = -35189.668405)

Kinetic:        +30.127454
Potential:      -26.357136
External:        +0.000000
XC:             -10.969035
Entropy (-ST):   -0.000016
Local:           +0.038402
--------------------------
Free energy:     -7.160331
Extrapolated:    -7.160323

Fermi level: -2.42892

 Band  Eigenvalues  Occupancy
    0     -4.78984    2.00000
    1     -3.56736    2.00000
    2     -3.09623    2.00000
    3     -3.04696    1.99999
    4     -1.82356    0.00001
    5     -1.68599    0.00000
    6     -1.50896    0.00000
    7     -1.36018    0.00000
    8      1.38882    0.00000
    9      1.54051    0.00000

Gap: 1.223 eV
Transition (v -> c):
  (s=0, k=0, n=3, [0.00, 0.00, 0.00]) -> (s=0, k=0, n=4, [0.00, 0.00, 0.00])

Forces in eV/Ang:
  0 Na   -0.04588    0.08038    0.00692
  1 Na   -0.03953    0.08070    0.02009
  2 Na   -0.04191    0.00899   -0.09311
  3 Na    0.02854    0.01219    0.09767
  4 Na    0.02277   -0.03059    0.02025
  5 Na    0.06915   -0.02871   -0.09049
  6 Na   -0.00073   -0.09296    0.06779
  7 Na    0.00926   -0.03019   -0.03186

System changes: positions 

Initializing position-dependent things.

Density initialized from wave functions
           .--------------------------------------.  
          /|                                      |  
         / |                                      |  
        /  |                                      |  
       /   |                                      |  
      /    |                                      |  
     /     |                                      |  
    /      |                                      |  
   /       |                                      |  
  /        |                                      |  
 *         |                                      |  
 |         |                                      |  
 |         |                Na                    |  
 |         |        Na    Na                      |  
 |         |                                      |  
 |         |                  Na                  |  
 |         |          Na       Na                 |  
 |         |           Na                         |  
 |         |                                      |  
 |         |               Na                     |  
 |         .--------------------------------------.  
 |        /                                      /   
 |       /                                      /    
 |      /                                      /     
 |     /                                      /      
 |    /                                      /       
 |   /                                      /        
 |  /                                      /         
 | /                                      /          
 |/                                      /           
 *--------------------------------------*            

Positions:
   0 Na     6.228674    8.626871    6.548354    ( 0.0000,  0.0000,  0.0000)
   1 Na     8.728091    9.368553    9.843351    ( 0.0000,  0.0000,  0.0000)
   2 Na     7.397726    5.550495    7.533353    ( 0.0000,  0.0000,  0.0000)
   3 Na    10.408448    7.082460    7.909397    ( 0.0000,  0.0000,  0.0000)
   4 Na     5.576318    7.946235    9.589141    ( 0.0000,  0.0000,  0.0000)
   5 Na     8.472512    6.177178   10.671781    ( 0.0000,  0.0000,  0.0000)
   6 Na     8.829332    7.374653    4.937130    ( 0.0000,  0.0000,  0.0000)
   7 Na     9.221041   10.355631    6.855675    ( 0.0000,  0.0000,  0.0000)

Unit cell:
           periodic     x           y           z      points  spacing
  1. axis:    no    16.000000    0.000000    0.000000    64     0.2500
  2. axis:    no     0.000000   16.000000    0.000000    64     0.2500
  3. axis:    no     0.000000    0.000000   16.000000    64     0.2500

  Lengths:  16.000000  16.000000  16.000000
  Angles:   90.000000  90.000000  90.000000

Effective grid spacing dv^(1/3) = 0.2500

                     log10-error:    total        iterations:
           time      wfs    density  energy       fermi  poisson
iter:   1  14:32:49          +inf    -7.202742    2      1      
iter:   2  14:32:50         -1.97    -7.202015    1      1      
iter:   3  14:32:52         -2.29    -7.201867    1      1      
iter:   4  14:32:53         -2.60    -7.201838    1      1      
iter:   5  14:32:54         -3.12    -7.201837    1      1      
iter:   6  14:32:55         -3.31    -7.201837    1      1      
iter:   7  14:32:57         -4.03    -7.201837    1      1      

Converged after 7 iterations.

Dipole moment: (0.047064, -0.087943, -0.018094) |e|*Ang

Energy contributions relative to reference atoms: (reference = -35189.668405)

Kinetic:        +30.133269
Potential:      -26.389310
External:        +0.000000
XC:             -10.984056
Entropy (-ST):   -0.000009
Local:           +0.038264
--------------------------
Free energy:     -7.201841
Extrapolated:    -7.201837

Fermi level: -2.41263

 Band  Eigenvalues  Occupancy
    0     -4.78703    2.00000
    1     -3.54556    2.00000
    2     -3.10896    2.00000
    3     -3.06249    2.00000
    4     -1.77228    0.00001
    5     -1.67676    0.00000
    6     -1.49940    0.00000
    7     -1.41247    0.00000
    8      1.37710    0.00000
    9      1.55667    0.00000

Gap: 1.290 eV
Transition (v -> c):
  (s=0, k=0, n=3, [0.00, 0.00, 0.00]) -> (s=0, k=0, n=4, [0.00, 0.00, 0.00])

Forces in eV/Ang:
  0 Na   -0.03583    0.07125    0.01592
  1 Na   -0.03785    0.07131    0.00758
  2 Na   -0.03824    0.00301   -0.04213
  3 Na    0.02335    0.01881    0.04933
  4 Na    0.02133   -0.03804    0.00828
  5 Na    0.04026   -0.02587   -0.07553
  6 Na    0.01133   -0.06408    0.05888
  7 Na    0.01738   -0.03683   -0.02230

[...]
  Angles:   90.000000  90.000000  90.000000

Effective grid spacing dv^(1/3) = 0.2500

                     log10-error:    total        iterations:
           time      wfs    density  energy       fermi  poisson
iter:   1  14:35:33          +inf    -5.887848    4      1      
iter:   2  14:35:34         -1.32    -5.882222    3      1      
iter:   3  14:35:36         -1.69    -5.879854    2      1      
iter:   4  14:35:37         -1.97    -5.879672    2      1      
iter:   5  14:35:38         -2.32    -5.879493    2      1      
iter:   6  14:35:40         -2.54    -5.879380    2      1      
iter:   7  14:35:41         -2.84    -5.879264    2      1      
iter:   8  14:35:42         -3.31    -5.879267    2      1      
iter:   9  14:35:43         -3.74    -5.879256    2      1      
iter:  10  14:35:45         -4.01    -5.879256    1      1      

Converged after 10 iterations.

Dipole moment: (0.068513, -0.039007, -0.322659) |e|*Ang

Energy contributions relative to reference atoms: (reference = -35189.668405)

Kinetic:        +51.832445
Potential:      -42.683558
External:        +0.000000
XC:             -15.084247
Entropy (-ST):   -0.024359
Local:           +0.068284
--------------------------
Free energy:     -5.891435
Extrapolated:    -5.879256

Fermi level: -2.61275

 Band  Eigenvalues  Occupancy
    0     -5.18738    2.00000
    1     -3.92605    2.00000
    2     -3.05829    1.99973
    3     -2.79374    1.94782
    4     -2.43203    0.05245
    5     -1.76202    0.00000
    6     -1.13370    0.00000
    7     -0.79178    0.00000
    8      0.47814    0.00000
    9      1.13891    0.00000

Gap: 0.362 eV
Transition (v -> c):
  (s=0, k=0, n=3, [0.00, 0.00, 0.00]) -> (s=0, k=0, n=4, [0.00, 0.00, 0.00])

Forces in eV/Ang:
  0 Na   -0.77031   -0.12070   -0.17568
  1 Na    0.46435   -0.61779    0.22356
  2 Na   -0.21959   -0.20584    0.32615
  3 Na   -0.41801    0.62228   -0.00204
  4 Na   -0.11349   -0.58048   -0.26023
  5 Na    0.27005    0.47474   -0.06204
  6 Na    0.14532    0.22320   -0.38627
  7 Na    0.64298    0.20312    0.33396

System changes: positions 

Initializing position-dependent things.

Density initialized from wave functions
           .--------------------------------------.  
          /|                                      |  
         / |                                      |  
        /  |                                      |  
       /   |                                      |  
      /    |                                      |  
     /     |                                      |  
    /      |                                      |  
   /       |                                      |  
  /        |                                      |  
 *         |                                      |  
 |         |          Na      Na                  |  
 |         |           Na                         |  
 |         |                                      |  
 |         |                                      |  
 |         |        Na     Naa                    |  
 |         |                                      |  
 |         |                                      |  
 |         |            Na                        |  
 |         |                 Na                   |  
 |         .--------------------------------------.  
 |        /                                      /   
 |       /                                      /    
 |      /                                      /     
 |     /                                      /      
 |    /                                      /       
 |   /                                      /        
 |  /                                      /         
 | /                                      /          
 |/                                      /           
 *--------------------------------------*            

Positions:
   0 Na     5.908471    7.197878    8.257949    ( 0.0000,  0.0000,  0.0000)
   1 Na     8.939484    5.977383    9.251159    ( 0.0000,  0.0000,  0.0000)
   2 Na     6.857413    7.234820   11.260680    ( 0.0000,  0.0000,  0.0000)
   3 Na     6.664535   10.003584    9.582891    ( 0.0000,  0.0000,  0.0000)
   4 Na     7.955120    5.888188    6.313195    ( 0.0000,  0.0000,  0.0000)
   5 Na     8.730635    8.827366    7.596978    ( 0.0000,  0.0000,  0.0000)
   6 Na     9.184816    8.297496    4.748049    ( 0.0000,  0.0000,  0.0000)
   7 Na     9.609042    8.820489   10.550866    ( 0.0000,  0.0000,  0.0000)

Unit cell:
           periodic     x           y           z      points  spacing
  1. axis:    no    16.000000    0.000000    0.000000    64     0.2500
  2. axis:    no     0.000000   16.000000    0.000000    64     0.2500
  3. axis:    no     0.000000    0.000000   16.000000    64     0.2500

  Lengths:  16.000000  16.000000  16.000000
  Angles:   90.000000  90.000000  90.000000

Effective grid spacing dv^(1/3) = 0.2500

                     log10-error:    total        iterations:
           time      wfs    density  energy       fermi  poisson
iter:   1  14:35:47          +inf    -6.346005    4      1      
iter:   2  14:35:48         -1.46    -6.343016    3      1      
iter:   3  14:35:50         -1.84    -6.342206    2      1      
iter:   4  14:35:51         -2.12    -6.342349    2      1      
iter:   5  14:35:52         -2.49    -6.342332    2      1      
iter:   6  14:35:53         -2.76    -6.342305    1      1      
iter:   7  14:35:55         -3.05    -6.342264    2      1      
iter:   8  14:35:56         -3.44    -6.342262    2      1      
iter:   9  14:35:57         -3.88    -6.342256    2      1      
iter:  10  14:35:58         -4.33    -6.342256    1      1      

Converged after 10 iterations.

Dipole moment: (0.060451, -0.028158, -0.295351) |e|*Ang

Energy contributions relative to reference atoms: (reference = -35189.668405)

Kinetic:        +42.358503
Potential:      -35.451812
External:        +0.000000
XC:             -13.294662
Entropy (-ST):   -0.017767
Local:           +0.054599
--------------------------
Free energy:     -6.351139
Extrapolated:    -6.342256

Fermi level: -2.58976

 Band  Eigenvalues  Occupancy
    0     -5.01979    2.00000
    1     -3.83371    2.00000
    2     -3.04298    1.99977
    3     -2.79124    1.96506
    4     -2.38861    0.03517
    5     -1.77045    0.00000
    6     -1.22566    0.00000
    7     -0.84795    0.00000
    8      0.75338    0.00000
    9      1.28095    0.00000

Gap: 0.403 eV
Transition (v -> c):
  (s=0, k=0, n=3, [0.00, 0.00, 0.00]) -> (s=0, k=0, n=4, [0.00, 0.00, 0.00])

Forces in eV/Ang:
  0 Na   -0.44130   -0.03901   -0.08114
  1 Na    0.28026   -0.32630    0.15253
  2 Na   -0.08861   -0.08470    0.07907
  3 Na   -0.26135    0.32360   -0.00287
  4 Na   -0.07309   -0.34115   -0.12328
  5 Na    0.14057    0.25896    0.04870
  6 Na    0.08260    0.12836   -0.27205
  7 Na    0.36476    0.07884    0.19449

System changes: positions 

Initializing position-dependent things.

Density initialized from wave functions
           .--------------------------------------.  
          /|                                      |  
         / |                                      |  
        /  |                                      |  
       /   |                                      |  
      /    |                                      |  
     /     |                                      |  
    /      |                                      |  
   /       |                                      |  
  /        |                                      |  
 *         |                                      |  
 |         |          Na      Na                  |  
 |         |           Na                         |  
 |         |                                      |  
 |         |                                      |  
 |         |        Na     Naa                    |  
 |         |                                      |  
 |         |                                      |  
 |         |                                      |  
 |         |            Na   Na                   |  
 |         .--------------------------------------.  
 |        /                                      /   
 |       /                                      /    
 |      /                                      /     
 |     /                                      /      
 |    /                                      /       
 |   /                                      /        
 |  /                                      /         
 | /                                      /          
 |/                                      /           
 *--------------------------------------*            

Positions:
   0 Na     5.790597    7.182767    8.233174    ( 0.0000,  0.0000,  0.0000)
   1 Na     9.012176    5.885918    9.288036    ( 0.0000,  0.0000,  0.0000)
   2 Na     6.827923    7.206970   11.298623    ( 0.0000,  0.0000,  0.0000)
   3 Na     6.598173   10.095043    9.582338    ( 0.0000,  0.0000,  0.0000)
   4 Na     7.936972    5.798859    6.276355    ( 0.0000,  0.0000,  0.0000)
   5 Na     8.770493    8.898593    7.596435    ( 0.0000,  0.0000,  0.0000)
   6 Na     9.206763    8.331437    4.683807    ( 0.0000,  0.0000,  0.0000)
   7 Na     9.706986    8.847338   10.602258    ( 0.0000,  0.0000,  0.0000)

Unit cell:
           periodic     x           y           z      points  spacing
  1. axis:    no    16.000000    0.000000    0.000000    64     0.2500
  2. axis:    no     0.000000   16.000000    0.000000    64     0.2500
  3. axis:    no     0.000000    0.000000   16.000000    64     0.2500

  Lengths:  16.000000  16.000000  16.000000
  Angles:   90.000000  90.000000  90.000000

Effective grid spacing dv^(1/3) = 0.2500

                     log10-error:    total        iterations:
           time      wfs    density  energy       fermi  poisson
iter:   1  14:36:01          +inf    -6.567575    3      1      
iter:   2  14:36:02         -1.49    -6.563968    3      1      
iter:   3  14:36:03         -1.86    -6.563330    2      1      
iter:   4  14:36:05         -2.14    -6.563466    2      1      
iter:   5  14:36:06         -2.53    -6.563485    2      1      
iter:   6  14:36:07         -2.82    -6.563478    2      1      
iter:   7  14:36:08         -3.14    -6.563463    2      1      
iter:   8  14:36:10         -3.52    -6.563462    2      1      
iter:   9  14:36:11         -3.91    -6.563458    2      1      
iter:  10  14:36:12         -4.41    -6.563458    1      1      

Converged after 10 iterations.

Dipole moment: (0.054121, -0.015596, -0.276463) |e|*Ang

Energy contributions relative to reference atoms: (reference = -35189.668405)

Kinetic:        +35.529454
Potential:      -30.212212
External:        +0.000000
XC:             -11.920012
Entropy (-ST):   -0.012360
Local:           +0.045491
--------------------------
Free energy:     -6.569638
Extrapolated:    -6.563458

Fermi level: -2.58003

 Band  Eigenvalues  Occupancy
    0     -4.88481    2.00000
    1     -3.75299    2.00000
    2     -3.03320    1.99977
    3     -2.80456    1.97782
    4     -2.35603    0.02241
    5     -1.77462    0.00000
    6     -1.31405    0.00000
    7     -0.90629    0.00000
    8      1.01487    0.00000
    9      1.47234    0.00000

Gap: 0.449 eV
Transition (v -> c):
  (s=0, k=0, n=3, [0.00, 0.00, 0.00]) -> (s=0, k=0, n=4, [0.00, 0.00, 0.00])

Forces in eV/Ang:
  0 Na   -0.24047    0.00773   -0.03087
  1 Na    0.16709   -0.15176    0.10101
  2 Na   -0.01370   -0.01687   -0.06226
  3 Na   -0.16453    0.13915   -0.00730
  4 Na   -0.04258   -0.16906   -0.03228
  5 Na    0.06864    0.12921    0.07320
  6 Na    0.02920    0.05733   -0.15530
  7 Na    0.19570    0.00347    0.10977

System changes: positions 

Initializing position-dependent things.

Density initialized from wave functions
           .--------------------------------------.  
          /|                                      |  
         / |                                      |  
        /  |                                      |  
       /   |                                      |  
      /    |                                      |  
     /     |                                      |  
    /      |                                      |  
   /       |                                      |  
  /        |                                      |  
 *         |                                      |  
 |         |          Na      Na                  |  
 |         |           Na                         |  
 |         |                                      |  
 |         |                                      |  
 |         |       Na      Naa                    |  
 |         |                                      |  
 |         |                                      |  
 |         |                                      |  
 |         |            Na   Na                   |  
 |         .--------------------------------------.  
 |        /                                      /   
 |       /                                      /    
 |      /                                      /     
 |     /                                      /      
 |    /                                      /       
 |   /                                      /        
 |  /                                      /         
 | /                                      /          
 |/                                      /           
 *--------------------------------------*            

Positions:
   0 Na     5.687621    7.176983    8.215681    ( 0.0000,  0.0000,  0.0000)
   1 Na     9.079202    5.812753    9.325579    ( 0.0000,  0.0000,  0.0000)
   2 Na     6.811198    7.190530   11.304944    ( 0.0000,  0.0000,  0.0000)
   3 Na     6.534603   10.166228    9.580947    ( 0.0000,  0.0000,  0.0000)
   4 Na     7.919643    5.721484    6.251756    ( 0.0000,  0.0000,  0.0000)
   5 Na     8.802446    8.957652    7.612600    ( 0.0000,  0.0000,  0.0000)
   6 Na     9.224005    8.359807    4.620179    ( 0.0000,  0.0000,  0.0000)
   7 Na     9.791791    8.861167   10.648135    ( 0.0000,  0.0000,  0.0000)

Unit cell:
           periodic     x           y           z      points  spacing
  1. axis:    no    16.000000    0.000000    0.000000    64     0.2500
  2. axis:    no     0.000000   16.000000    0.000000    64     0.2500
  3. axis:    no     0.000000    0.000000   16.000000    64     0.2500

  Lengths:  16.000000  16.000000  16.000000
  Angles:   90.000000  90.000000  90.000000

Effective grid spacing dv^(1/3) = 0.2500

                     log10-error:    total        iterations:
           time      wfs    density  energy       fermi  poisson
iter:   1  14:36:14          +inf    -6.661484    3      1      
iter:   2  14:36:16         -1.50    -6.657003    3      1      
iter:   3  14:36:17         -1.87    -6.656403    2      1      
iter:   4  14:36:18         -2.15    -6.656455    2      1      
iter:   5  14:36:20         -2.54    -6.656481    2      1      
iter:   6  14:36:21         -2.84    -6.656479    2      1      
iter:   7  14:36:22         -3.17    -6.656474    2      1      
iter:   8  14:36:23         -3.56    -6.656474    2      1      
iter:   9  14:36:25         -3.96    -6.656473    1      1      
iter:  10  14:36:26         -4.39    -6.656472    1      1      

Converged after 10 iterations.

Dipole moment: (0.048820, -0.002690, -0.263505) |e|*Ang

Energy contributions relative to reference atoms: (reference = -35189.668405)

Kinetic:        +30.780642
Potential:      -26.556520
External:        +0.000000
XC:             -10.916418
Entropy (-ST):   -0.007965
Local:           +0.039806
--------------------------
Free energy:     -6.660455
Extrapolated:    -6.656472

Fermi level: -2.58011

 Band  Eigenvalues  Occupancy
    0     -4.78402    2.00000
    1     -3.68472    2.00000
    2     -3.02564    1.99973
    3     -2.83219    1.98716
    4     -2.32907    0.01311
    5     -1.77357    0.00000
    6     -1.39362    0.00000
    7     -0.96109    0.00000
    8      1.23792    0.00000
    9      1.70762    0.00000

Gap: 0.503 eV
Transition (v -> c):
  (s=0, k=0, n=3, [0.00, 0.00, 0.00]) -> (s=0, k=0, n=4, [0.00, 0.00, 0.00])

Forces in eV/Ang:
  0 Na   -0.11634    0.03047   -0.01062
  1 Na    0.09846   -0.05302    0.06129
  2 Na    0.02713    0.01815   -0.13168
  3 Na   -0.10157    0.03352   -0.01087
  4 Na   -0.02070   -0.04914    0.02711
  5 Na    0.03117    0.05048    0.05220
  6 Na   -0.01174    0.00992   -0.04990
  7 Na    0.09218   -0.03863    0.05989

System changes: positions 

Initializing position-dependent things.

Density initialized from wave functions
           .--------------------------------------.  
          /|                                      |  
         / |                                      |  
        /  |                                      |  
       /   |                                      |  
      /    |                                      |  
     /     |                                      |  
    /      |                                      |  
   /       |                                      |  
  /        |                                      |  
 *         |                                      |  
 |         |          Na       Na                 |  
 |         |           Na                         |  
 |         |                                      |  
 |         |                                      |  
 |         |       Na      Naa                    |  
 |         |                                      |  
 |         |                                      |  
 |         |                                      |  
 |         |            Na   Na                   |  
 |         .--------------------------------------.  
 |        /                                      /   
 |       /                                      /    
 |      /                                      /     
 |     /                                      /      
 |    /                                      /       
 |   /                                      /        
 |  /                                      /         
 | /                                      /          
 |/                                      /           
 *--------------------------------------*            

Positions:
   0 Na     5.606403    7.181690    8.205142    ( 0.0000,  0.0000,  0.0000)
   1 Na     9.137312    5.762831    9.360524    ( 0.0000,  0.0000,  0.0000)
   2 Na     6.809413    7.186942   11.275625    ( 0.0000,  0.0000,  0.0000)
   3 Na     6.477190   10.210813    9.577880    ( 0.0000,  0.0000,  0.0000)
   4 Na     7.905246    5.667376    6.244712    ( 0.0000,  0.0000,  0.0000)
   5 Na     8.825674    9.000232    7.637710    ( 0.0000,  0.0000,  0.0000)
   6 Na     9.231470    8.377781    4.570826    ( 0.0000,  0.0000,  0.0000)
   7 Na     9.857734    8.858992   10.686021    ( 0.0000,  0.0000,  0.0000)

Unit cell:
           periodic     x           y           z      points  spacing
  1. axis:    no    16.000000    0.000000    0.000000    64     0.2500
  2. axis:    no     0.000000   16.000000    0.000000    64     0.2500
  3. axis:    no     0.000000    0.000000   16.000000    64     0.2500

  Lengths:  16.000000  16.000000  16.000000
  Angles:   90.000000  90.000000  90.000000

Effective grid spacing dv^(1/3) = 0.2500

                     log10-error:    total        iterations:
           time      wfs    density  energy       fermi  poisson
iter:   1  14:36:28          +inf    -6.695980    3      1      
iter:   2  14:36:29         -1.54    -6.691706    3      1      
iter:   3  14:36:31         -1.92    -6.691248    2      1      
iter:   4  14:36:32         -2.20    -6.691226    2      1      
iter:   5  14:36:33         -2.60    -6.691245    2      1      
iter:   6  14:36:35         -2.92    -6.691245    2      1      
iter:   7  14:36:36         -3.21    -6.691245    2      1      
