
  ___ ___ ___ _ _ _  
 |   |   |_  | | | | 
 | | | | | . | | | | 
 |__ |  _|___|_____|  19.8.1
 |___|_|             

User:   eliasel@hebbe06-9
Date:   Wed Feb  3 14:24:20 2021
Arch:   x86_64
Pid:    7929
Python: 3.7.2
gpaw:   /apps/Hebbe7/software/MPI/intel/2019.1.144-GCC-8.2.0-2.31.1/impi/2018.4.274/GPAW/19.8.1-Python-3.7.2/lib/python3.7/site-packages/gpaw
_gpaw:  /apps/Hebbe7/software/MPI/intel/2019.1.144-GCC-8.2.0-2.31.1/impi/2018.4.274/GPAW/19.8.1-Python-3.7.2/lib/python3.7/site-packages/
        _gpaw.cpython-37m-x86_64-linux-gnu.so
ase:    /apps/Hebbe7/software/MPI/intel/2019.1.144-GCC-8.2.0-2.31.1/impi/2018.4.274/ASE/3.18.0-Python-3.7.2/lib/python3.7/site-packages/ase (version 3.18.0)
numpy:  /apps/Hebbe7/software/MPI/intel/2019.1.144-GCC-8.2.0-2.31.1/impi/2018.4.274/SciPy-bundle/2019.03/lib/python3.7/site-packages/numpy (version 1.16.2)
scipy:  /apps/Hebbe7/software/MPI/intel/2019.1.144-GCC-8.2.0-2.31.1/impi/2018.4.274/SciPy-bundle/2019.03/lib/python3.7/site-packages/scipy (version 1.2.1)
libxc:  4.3.4
units:  Angstrom and eV
cores:  1

Input parameters:
  basis: dzp
  h: 0.25
  mode: lcao
  nbands: 10
  occupations: {name: fermi-dirac,
                width: 0.05}
  setups: {Na: 1}

System changes: positions, numbers, cell, pbc, initial_charges, initial_magmoms 

Initialize ...

Na-setup:
  name: Sodium
  id: fa5c50181d04022fed15b2593599c257
  Z: 11
  valence: 1
  core: 10
  charge: 0.0
  file: /apps/Hebbe7/software/Core/GPAW-setups/0.9.20000/Na.1.LDA.gz
  compensation charges: gauss, rc=0.43, lmax=2
  cutoffs: 2.36(filt), 3.60(core),
  valence states:
                energy  radius
    3s(1.00)    -2.819   1.349
    3p(0.00)    -0.774   1.349
    *s          24.392   1.349

  LCAO basis set for Na:
    Name: 1.dzp
    File: /apps/Hebbe7/software/Core/GPAW-setups/0.9.20000/Na.1.dzp.basis.gz
    Number of radial functions: 3
    Number of spherical harmonics: 5
      l=0, rc=11.7656 Bohr: 3s-sz confined orbital
      l=0, rc=7.1094 Bohr: 3s-dz split-valence wave
      l=1, rc=11.7656 Bohr: p-type Gaussian polarization

Reference energy: -35189.668405

Spin-paired calculation

Occupation numbers:
  Fermi-Dirac: width=0.0500 eV

Convergence criteria:
  Maximum total energy change: 0.0005 eV / electron
  Maximum integral of absolute density change: 0.0001 electrons
  Maximum integral of absolute eigenstate change: 4e-08 eV^2
  Maximum number of iterations: 333

Symmetries present (total): 1

  ( 1  0  0)
  ( 0  1  0)
  ( 0  0  1)

1 k-point (Gamma)
1 k-point in the irreducible part of the Brillouin zone
       k-points in crystal coordinates                weights
   0:     0.00000000    0.00000000    0.00000000          1/1

Wave functions: LCAO
  Diagonalizer: Serial LAPACK
  Atomic Correction: dense with blas
  Datatype: float
 

Eigensolver
   LCAO using direct dense diagonalizer 

Densities:
  Coarse grid: 64*64*64 grid
  Fine grid: 128*128*128 grid
  Total Charge: 0.000000 

Density mixing:
  Method: separate
  Backend: pulay
  Linear mixing parameter: 0.25
  Mixing with 3 old densities
  No damping of long wave oscillations 

Hamiltonian:
  XC and Coulomb potentials evaluated on a 128*128*128 grid
  Using the LDA Exchange-Correlation functional
  Interpolation: tri-quintic (5. degree polynomial)
  Poisson solver: FastPoissonSolver using
    6*3+1=19 point O(h^6) finite-difference Laplacian stencil;
    FFT axes: [];
    FST axes: [0, 1, 2].
 

Memory estimate:
  Process memory now: 254.17 MiB
  Calculator: 137.65 MiB
    Density: 86.07 MiB
      Arrays: 50.70 MiB
      Localized functions: 23.92 MiB
      Mixer: 11.45 MiB
    Hamiltonian: 34.89 MiB
      Arrays: 33.16 MiB
      XC: 0.00 MiB
      Poisson: 0.00 MiB
      vbar: 1.73 MiB
    Wavefunctions: 16.70 MiB
      C [qnM]: 0.00 MiB
      S, T [2 x qmm]: 0.02 MiB
      P [aqMi]: 0.00 MiB
      BasisFunctions: 16.67 MiB
      Eigensolver: 0.00 MiB

Total number of cores used: 1

Number of atoms: 8
Number of atomic orbitals: 40
Number of bands in calculation: 10
Bands to converge: occupied states only
Number of valence electrons: 8

... initialized

Initializing position-dependent things.

Density initialized from atomic densities
           .--------------------------------------.  
          /|                                      |  
         / |                                      |  
        /  |                                      |  
       /   |                                      |  
      /    |                                      |  
     /     |                                      |  
    /      |                                      |  
   /       |                                      |  
  /        |                                      |  
 *         |                                      |  
 |         |                                      |  
 |         |            Na                        |  
 |         |            Na                        |  
 |         |                                      |  
 |         |                Na                    |  
 |         |         Na                           |  
 |         |            Na                        |  
 |         |                  Na                  |  
 |         |            Na                        |  
 |         .--------------------------------------.  
 |        /              Na                      /   
 |       /                                      /    
 |      /                                      /     
 |     /                                      /      
 |    /                                      /       
 |   /                                      /        
 |  /                                      /         
 | /                                      /          
 |/                                      /           
 *--------------------------------------*            

Positions:
   0 Na     9.223192    7.311949    8.287402    ( 0.0000,  0.0000,  0.0000)
   1 Na     8.152902    5.783927    6.115956    ( 0.0000,  0.0000,  0.0000)
   2 Na     7.216674    9.116618    9.286565    ( 0.0000,  0.0000,  0.0000)
   3 Na     7.383019    8.575918    6.462741    ( 0.0000,  0.0000,  0.0000)
   4 Na     6.409553    6.554448    8.247494    ( 0.0000,  0.0000,  0.0000)
   5 Na     7.793365    7.490988    3.833553    ( 0.0000,  0.0000,  0.0000)
   6 Na    10.041855    7.902813    5.599563    ( 0.0000,  0.0000,  0.0000)
   7 Na     7.857594    6.686732   10.727179    ( 0.0000,  0.0000,  0.0000)

Unit cell:
           periodic     x           y           z      points  spacing
  1. axis:    no    16.000000    0.000000    0.000000    64     0.2500
  2. axis:    no     0.000000   16.000000    0.000000    64     0.2500
  3. axis:    no     0.000000    0.000000   16.000000    64     0.2500

  Lengths:  16.000000  16.000000  16.000000
  Angles:   90.000000  90.000000  90.000000

Effective grid spacing dv^(1/3) = 0.2500

                     log10-error:    total        iterations:
           time      wfs    density  energy       fermi  poisson
iter:   1  14:24:25          +inf    -5.312513    3      1      
iter:   2  14:24:26         -0.49    -4.575622    30     1      
iter:   3  14:24:28         -0.86    -4.445634    32     1      
iter:   4  14:24:29         -1.24    -4.442236    3      1      
iter:   5  14:24:30         -1.37    -4.425925    4      1      
iter:   6  14:24:32         -1.97    -4.425214    2      1      
iter:   7  14:24:33         -2.25    -4.424632    3      1      
iter:   8  14:24:34         -2.61    -4.424451    3      1      
iter:   9  14:24:36         -3.00    -4.424502    2      1      
iter:  10  14:24:37         -3.29    -4.424527    2      1      
iter:  11  14:24:38         -3.53    -4.424547    2      1      
iter:  12  14:24:40         -3.80    -4.424553    2      1      
iter:  13  14:24:41         -4.01    -4.424555    2      1      

Converged after 13 iterations.

Dipole moment: (-0.003492, 0.001679, -0.057602) |e|*Ang

Energy contributions relative to reference atoms: (reference = -35189.668405)

Kinetic:        +67.735406
Potential:      -54.414286
External:        +0.000000
XC:             -17.786126
Entropy (-ST):   -0.103741
Local:           +0.092322
--------------------------
Free energy:     -4.476425
Extrapolated:    -4.424555

Fermi level: -2.74634

 Band  Eigenvalues  Occupancy
    0     -5.45727    2.00000
    1     -4.24183    2.00000
    2     -2.86591    1.83233
    3     -2.86442    1.82772
    4     -2.66705    0.33996
    5     -1.55204    0.00000
    6     -1.54198    0.00000
    7     -0.93163    0.00000
    8      0.28031    0.00000
    9      0.87511    0.00000

Gap: 0.197 eV
Transition (v -> c):
  (s=0, k=0, n=3, [0.00, 0.00, 0.00]) -> (s=0, k=0, n=4, [0.00, 0.00, 0.00])

Forces in eV/Ang:
  0 Na    1.37012   -0.11267    0.44619
  1 Na   -0.01818   -1.46273   -0.14857
  2 Na   -0.27815    1.23719    0.34825
  3 Na   -0.75783    1.18614   -0.32121
  4 Na   -1.26262   -0.74988   -0.09841
  5 Na   -0.46575    0.01223   -0.87154
  6 Na    1.24480    0.42566   -0.16731
  7 Na    0.16868   -0.53757    0.81004

System changes: positions 

Initializing position-dependent things.

Density initialized from wave functions
           .--------------------------------------.  
          /|                                      |  
         / |                                      |  
        /  |                                      |  
       /   |                                      |  
      /    |                                      |  
     /     |                                      |  
    /      |                                      |  
   /       |                                      |  
  /        |                                      |  
 *         |                                      |  
 |         |                                      |  
 |         |            Na                        |  
 |         |            Na                        |  
 |         |                                      |  
 |         |                Na                    |  
 |         |        Na                            |  
 |         |            Na                        |  
 |         |                   Na                 |  
 |         |            Na                        |  
 |         .--------------------------------------.  
 |        /              Na                      /   
 |       /                                      /    
 |      /                                      /     
 |     /                                      /      
 |    /                                      /       
 |   /                                      /        
 |  /                                      /         
 | /                                      /          
 |/                                      /           
 *--------------------------------------*            

Positions:
   0 Na     9.369979    7.299878    8.335204    ( 0.0000,  0.0000,  0.0000)
   1 Na     8.150955    5.627217    6.100038    ( 0.0000,  0.0000,  0.0000)
   2 Na     7.186874    9.249164    9.323875    ( 0.0000,  0.0000,  0.0000)
   3 Na     7.301829    8.702995    6.428328    ( 0.0000,  0.0000,  0.0000)
   4 Na     6.274282    6.474110    8.236951    ( 0.0000,  0.0000,  0.0000)
   5 Na     7.743467    7.492298    3.740180    ( 0.0000,  0.0000,  0.0000)
   6 Na    10.175216    7.948416    5.581638    ( 0.0000,  0.0000,  0.0000)
   7 Na     7.875665    6.629139   10.813963    ( 0.0000,  0.0000,  0.0000)

Unit cell:
           periodic     x           y           z      points  spacing
  1. axis:    no    16.000000    0.000000    0.000000    64     0.2500
  2. axis:    no     0.000000   16.000000    0.000000    64     0.2500
  3. axis:    no     0.000000    0.000000   16.000000    64     0.2500

  Lengths:  16.000000  16.000000  16.000000
  Angles:   90.000000  90.000000  90.000000

Effective grid spacing dv^(1/3) = 0.2500

                     log10-error:    total        iterations:
           time      wfs    density  energy       fermi  poisson
iter:   1  14:24:43          +inf    -5.579011    4      1      
iter:   2  14:24:45         -1.22    -5.575807    3      1      
iter:   3  14:24:46         -1.68    -5.574054    3      1      
iter:   4  14:24:47         -1.88    -5.573185    3      1      
iter:   5  14:24:49         -2.22    -5.572822    2      1      
iter:   6  14:24:50         -2.43    -5.572645    2      1      
iter:   7  14:24:51         -2.64    -5.572471    2      1      
iter:   8  14:24:53         -3.02    -5.572432    2      1      
iter:   9  14:24:54         -3.25    -5.572411    2      1      
iter:  10  14:24:55         -3.59    -5.572412    2      1      
iter:  11  14:24:56         -3.85    -5.572415    2      1      
iter:  12  14:24:58         -4.08    -5.572419    2      1      

Converged after 12 iterations.

Dipole moment: (-0.012568, -0.012560, -0.068849) |e|*Ang

Energy contributions relative to reference atoms: (reference = -35189.668405)

Kinetic:        +51.763080
Potential:      -42.314163
External:        +0.000000
XC:             -15.053912
Entropy (-ST):   -0.079226
Local:           +0.072188
--------------------------
Free energy:     -5.612032
Extrapolated:    -5.572419

Fermi level: -2.69151

 Band  Eigenvalues  Occupancy
    0     -5.24735    2.00000
    1     -4.10694    2.00000
    2     -2.83490    1.89246
    3     -2.82881    1.87938
    4     -2.58902    0.22816
    5     -1.57602    0.00000
    6     -1.54651    0.00000
    7     -0.92622    0.00000
    8      0.51855    0.00000
    9      0.94290    0.00000

Gap: 0.240 eV
Transition (v -> c):
  (s=0, k=0, n=3, [0.00, 0.00, 0.00]) -> (s=0, k=0, n=4, [0.00, 0.00, 0.00])

Forces in eV/Ang:
  0 Na    0.75632   -0.04477    0.25233
  1 Na    0.05135   -0.80841   -0.06680
  2 Na   -0.14585    0.68984    0.19273
  3 Na   -0.40393    0.66310   -0.17987
  4 Na   -0.72927   -0.35820   -0.06470
  5 Na   -0.30202   -0.03314   -0.45461
  6 Na    0.69020    0.24598   -0.09427
  7 Na    0.08449   -0.35317    0.40971

System changes: positions 

Initializing position-dependent things.

Density initialized from wave functions
           .--------------------------------------.  
          /|                                      |  
         / |                                      |  
        /  |                                      |  
       /   |                                      |  
      /    |                                      |  
     /     |                                      |  
    /      |                                      |  
   /       |                                      |  
  /        |                                      |  
 *         |                                      |  
 |         |                                      |  
 |         |            Na                        |  
 |         |                                      |  
 |         |                                      |  
 |         |                 Na                   |  
 |         |        Na  Na                        |  
 |         |                                      |  
 |         |                   Na                 |  
 |         |            Na                        |  
 |         .--------------------------------------.  
 |        /             Na                       /   
 |       /                                      /    
 |      /                                      /     
 |     /                                      /      
 |    /                                      /       
 |   /                                      /        
 |  /                                      /         
 | /                                      /          
 |/                                      /           
 *--------------------------------------*            

Positions:
   0 Na     9.488025    7.291903    8.374246    ( 0.0000,  0.0000,  0.0000)
   1 Na     8.155492    5.501095    6.088750    ( 0.0000,  0.0000,  0.0000)
   2 Na     7.163674    9.356443    9.353928    ( 0.0000,  0.0000,  0.0000)
   3 Na     7.237968    8.806019    6.400399    ( 0.0000,  0.0000,  0.0000)
   4 Na     6.162287    6.415044    8.227440    ( 0.0000,  0.0000,  0.0000)
   5 Na     7.698872    7.489385    3.667724    ( 0.0000,  0.0000,  0.0000)
   6 Na    10.282769    7.986185    5.567032    ( 0.0000,  0.0000,  0.0000)
   7 Na     7.889341    6.577213   10.880031    ( 0.0000,  0.0000,  0.0000)

Unit cell:
           periodic     x           y           z      points  spacing
  1. axis:    no    16.000000    0.000000    0.000000    64     0.2500
  2. axis:    no     0.000000   16.000000    0.000000    64     0.2500
  3. axis:    no     0.000000    0.000000   16.000000    64     0.2500

  Lengths:  16.000000  16.000000  16.000000
  Angles:   90.000000  90.000000  90.000000

Effective grid spacing dv^(1/3) = 0.2500

                     log10-error:    total        iterations:
           time      wfs    density  energy       fermi  poisson
iter:   1  14:25:00          +inf    -6.095995    4      1      
iter:   2  14:25:01         -1.42    -6.095581    3      1      
iter:   3  14:25:03         -1.88    -6.095857    3      1      
iter:   4  14:25:04         -2.10    -6.095867    3      1      
iter:   5  14:25:05         -2.43    -6.095686    2      1      
iter:   6  14:25:07         -2.66    -6.095619    2      1      
iter:   7  14:25:08         -2.87    -6.095545    2      1      
iter:   8  14:25:09         -3.19    -6.095518    2      1      
iter:   9  14:25:11         -3.48    -6.095506    2      1      
iter:  10  14:25:12         -3.78    -6.095505    2      1      
iter:  11  14:25:13         -4.00    -6.095505    2      1      

Converged after 11 iterations.

Dipole moment: (-0.022807, -0.029058, -0.078257) |e|*Ang

Energy contributions relative to reference atoms: (reference = -35189.668405)

Kinetic:        +41.892360
Potential:      -34.801038
External:        +0.000000
XC:             -13.217389
Entropy (-ST):   -0.057765
Local:           +0.059444
--------------------------
Free energy:     -6.124388
Extrapolated:    -6.095505

Fermi level: -2.65666

 Band  Eigenvalues  Occupancy
    0     -5.07803    2.00000
    1     -3.99780    2.00000
    2     -2.82679    1.93558
    3     -2.81375    1.91718
    4     -2.53004    0.14724
    5     -1.60538    0.00000
    6     -1.55527    0.00000
    7     -0.93454    0.00000
    8      0.71421    0.00000
    9      1.03792    0.00000

Gap: 0.284 eV
Transition (v -> c):
  (s=0, k=0, n=3, [0.00, 0.00, 0.00]) -> (s=0, k=0, n=4, [0.00, 0.00, 0.00])

Forces in eV/Ang:
  0 Na    0.44462   -0.00666    0.15208
  1 Na    0.07489   -0.45846   -0.01832
  2 Na   -0.07141    0.38515    0.10683
  3 Na   -0.22050    0.39528   -0.10533
  4 Na   -0.43453   -0.15816   -0.05151
  5 Na   -0.20398   -0.06151   -0.20638
  6 Na    0.38117    0.14594   -0.05380
  7 Na    0.03388   -0.24424    0.17265

System changes: positions 

Initializing position-dependent things.

Density initialized from wave functions
           .--------------------------------------.  
          /|                                      |  
         / |                                      |  
        /  |                                      |  
       /   |                                      |  
      /    |                                      |  
     /     |                                      |  
    /      |                                      |  
   /       |                                      |  
  /        |                                      |  
 *         |                                      |  
 |         |                                      |  
 |         |            Na                        |  
 |         |                                      |  
 |         |                                      |  
 |         |                 Na                   |  
 |         |        Na  Na                        |  
 |         |                                      |  
 |         |                   Na                 |  
 |         |            Na                        |  
 |         .--------------------------------------.  
 |        /             Na                       /   
 |       /                                      /    
 |      /                                      /     
 |     /                                      /      
 |    /                                      /       
 |   /                                      /        
 |  /                                      /         
 | /                                      /          
 |/                                      /           
 *--------------------------------------*            

Positions:
   0 Na     9.595081    7.287573    8.410322    ( 0.0000,  0.0000,  0.0000)
   1 Na     8.167133    5.388519    6.081463    ( 0.0000,  0.0000,  0.0000)
   2 Na     7.144536    9.451788    9.380494    ( 0.0000,  0.0000,  0.0000)
   3 Na     7.182529    8.900406    6.375006    ( 0.0000,  0.0000,  0.0000)
   4 Na     6.058706    6.369611    8.216893    ( 0.0000,  0.0000,  0.0000)
   5 Na     7.653613    7.480427    3.609832    ( 0.0000,  0.0000,  0.0000)
   6 Na    10.377737    8.021052    5.553884    ( 0.0000,  0.0000,  0.0000)
   7 Na     7.899642    6.523695   10.930859    ( 0.0000,  0.0000,  0.0000)

Unit cell:
           periodic     x           y           z      points  spacing
  1. axis:    no    16.000000    0.000000    0.000000    64     0.2500
  2. axis:    no     0.000000   16.000000    0.000000    64     0.2500
  3. axis:    no     0.000000    0.000000   16.000000    64     0.2500

  Lengths:  16.000000  16.000000  16.000000
  Angles:   90.000000  90.000000  90.000000

Effective grid spacing dv^(1/3) = 0.2500

                     log10-error:    total        iterations:
           time      wfs    density  energy       fermi  poisson
iter:   1  14:25:15          +inf    -6.356912    4      1      
iter:   2  14:25:17         -1.49    -6.355849    3      1      
iter:   3  14:25:18         -1.98    -6.356389    2      1      
iter:   4  14:25:19         -2.23    -6.356576    2      1      
iter:   5  14:25:21         -2.53    -6.356484    2      1      
iter:   6  14:25:22         -2.79    -6.356470    2      1      
iter:   7  14:25:23         -3.03    -6.356434    2      1      
iter:   8  14:25:25         -3.32    -6.356416    2      1      
iter:   9  14:25:26         -3.63    -6.356409    2      1      
iter:  10  14:25:27         -3.93    -6.356408    2      1      
iter:  11  14:25:29         -4.15    -6.356407    2      1      

Converged after 11 iterations.

Dipole moment: (-0.034024, -0.047127, -0.085947) |e|*Ang

Energy contributions relative to reference atoms: (reference = -35189.668405)

Kinetic:        +34.917397
Potential:      -29.486189
External:        +0.000000
XC:             -11.817466
Entropy (-ST):   -0.039800
Local:           +0.049752
--------------------------
Free energy:     -6.376306
Extrapolated:    -6.356407

Fermi level: -2.63284

 Band  Eigenvalues  Occupancy
    0     -4.93338    2.00000
    1     -3.90334    2.00000
    2     -2.83325    1.96432
    3     -2.81170    1.94561
    4     -2.48013    0.09007
    5     -1.64119    0.00000
    6     -1.56860    0.00000
    7     -0.95596    0.00000
    8      0.94697    0.00000
    9      1.17949    0.00000

Gap: 0.332 eV
Transition (v -> c):
  (s=0, k=0, n=3, [0.00, 0.00, 0.00]) -> (s=0, k=0, n=4, [0.00, 0.00, 0.00])

Forces in eV/Ang:
  0 Na    0.25693    0.01692    0.08896
  1 Na    0.07665   -0.23549    0.01641
  2 Na   -0.02483    0.19118    0.05124
  3 Na   -0.10855    0.23734   -0.05715
  4 Na   -0.24221   -0.04402   -0.04908
  5 Na   -0.13626   -0.07981   -0.04014
  6 Na    0.18312    0.08092   -0.02589
  7 Na   -0.00196   -0.16639    0.01338

System changes: positions 

Initializing position-dependent things.

Density initialized from wave functions
           .--------------------------------------.  
          /|                                      |  
         / |                                      |  
        /  |                                      |  
       /   |                                      |  
      /    |                                      |  
     /     |                                      |  
    /      |                                      |  
   /       |                                      |  
  /        |                                      |  
 *         |                                      |  
 |         |                                      |  
 |         |            Na                        |  
 |         |                                      |  
 |         |                                      |  
 |         |                 Na                   |  
 |         |        Na  Na                        |  
 |         |                                      |  
 |         |                    Na                |  
 |         |            Na                        |  
 |         .--------------------------------------.  
 |        /             Na                       /   
 |       /                                      /    
 |      /                                      /     
 |     /                                      /      
 |    /                                      /       
 |   /                                      /        
 |  /                                      /         
 | /                                      /          
 |/                                      /           
 *--------------------------------------*            

Positions:
   0 Na     9.691897    7.288330    8.443519    ( 0.0000,  0.0000,  0.0000)
   1 Na     8.186882    5.291921    6.080408    ( 0.0000,  0.0000,  0.0000)
   2 Na     7.130722    9.532311    9.402618    ( 0.0000,  0.0000,  0.0000)
   3 Na     7.136533    8.987506    6.352505    ( 0.0000,  0.0000,  0.0000)
   4 Na     5.965120    6.340123    8.203543    ( 0.0000,  0.0000,  0.0000)
   5 Na     7.607272    7.462314    3.573382    ( 0.0000,  0.0000,  0.0000)
   6 Na    10.456756    8.052446    5.542762    ( 0.0000,  0.0000,  0.0000)
   7 Na     7.904679    6.467911   10.959172    ( 0.0000,  0.0000,  0.0000)

Unit cell:
           periodic     x           y           z      points  spacing
  1. axis:    no    16.000000    0.000000    0.000000    64     0.2500
  2. axis:    no     0.000000   16.000000    0.000000    64     0.2500
  3. axis:    no     0.000000    0.000000   16.000000    64     0.2500

  Lengths:  16.000000  16.000000  16.000000
  Angles:   90.000000  90.000000  90.000000

Effective grid spacing dv^(1/3) = 0.2500

                     log10-error:    total        iterations:
           time      wfs    density  energy       fermi  poisson
iter:   1  14:25:31          +inf    -6.476435    4      1      
iter:   2  14:25:32         -1.54    -6.474736    3      1      
iter:   3  14:25:33         -2.04    -6.475136    2      1      
iter:   4  14:25:35         -2.34    -6.475326    2      1      
iter:   5  14:25:36         -2.61    -6.475291    2      1      
iter:   6  14:25:37         -2.93    -6.475293    2      1      
iter:   7  14:25:38         -3.19    -6.475276    2      1      
iter:   8  14:25:40         -3.50    -6.475268    2      1      
iter:   9  14:25:41         -3.78    -6.475263    2      1      
iter:  10  14:25:42         -4.10    -6.475262    2      1      

Converged after 10 iterations.

Dipole moment: (-0.045101, -0.065166, -0.090891) |e|*Ang

Energy contributions relative to reference atoms: (reference = -35189.668405)

Kinetic:        +30.034614
Potential:      -25.766685
External:        +0.000000
XC:             -10.774092
Entropy (-ST):   -0.025948
Local:           +0.043875
--------------------------
Free energy:     -6.488236
Extrapolated:    -6.475262

Fermi level: -2.61657

 Band  Eigenvalues  Occupancy
    0     -4.81755    2.00000
    1     -3.82575    2.00000
    2     -2.85034    1.98153
    3     -2.81963    1.96613
    4     -2.43574    0.05234
    5     -1.68057    0.00000
    6     -1.58428    0.00000
    7     -0.98604    0.00000
    8      1.22698    0.00000
    9      1.35565    0.00000

Gap: 0.384 eV
Transition (v -> c):
  (s=0, k=0, n=3, [0.00, 0.00, 0.00]) -> (s=0, k=0, n=4, [0.00, 0.00, 0.00])

Forces in eV/Ang:
  0 Na    0.14636    0.03266    0.04681
  1 Na    0.06540   -0.09697    0.04556
  2 Na    0.00470    0.06626    0.01522
  3 Na   -0.04355    0.14269   -0.02450
  4 Na   -0.11264    0.01873   -0.05473
  5 Na   -0.09068   -0.09080    0.06597
  6 Na    0.05883    0.03978   -0.00655
  7 Na   -0.02531   -0.11299   -0.08985

System changes: positions 

Initializing position-dependent things.

Density initialized from wave functions
           .--------------------------------------.  
          /|                                      |  
         / |                                      |  
        /  |                                      |  
       /   |                                      |  
      /    |                                      |  
     /     |                                      |  
    /      |                                      |  
   /       |                                      |  
  /        |                                      |  
 *         |                                      |  
 |         |                                      |  
 |         |            Na                        |  
 |         |                                      |  
 |         |                                      |  
 |         |                 Na                   |  
 |         |       Na   Na                        |  
 |         |                                      |  
 |         |                    Na                |  
 |         |            Na                        |  
 |         .--------------------------------------.  
 |        /             Na                       /   
 |       /                                      /    
 |      /                                      /     
 |     /                                      /      
 |    /                                      /       
 |   /                                      /        
 |  /                                      /         
 | /                                      /          
 |/                                      /           
 *--------------------------------------*            

Positions:
   0 Na     9.774213    7.295751    8.471511    ( 0.0000,  0.0000,  0.0000)
   1 Na     8.213022    5.219533    6.088996    ( 0.0000,  0.0000,  0.0000)
   2 Na     7.124368    9.589862    9.417834    ( 0.0000,  0.0000,  0.0000)
   3 Na     7.103174    9.064011    6.334997    ( 0.0000,  0.0000,  0.0000)
   4 Na     5.889971    6.329631    8.185352    ( 0.0000,  0.0000,  0.0000)
   5 Na     7.562481    7.432982    3.567730    ( 0.0000,  0.0000,  0.0000)
   6 Na    10.511701    8.077880    5.535196    ( 0.0000,  0.0000,  0.0000)
   7 Na     7.902095    6.413032   10.955428    ( 0.0000,  0.0000,  0.0000)

Unit cell:
           periodic     x           y           z      points  spacing
  1. axis:    no    16.000000    0.000000    0.000000    64     0.2500
  2. axis:    no     0.000000   16.000000    0.000000    64     0.2500
  3. axis:    no     0.000000    0.000000   16.000000    64     0.2500

  Lengths:  16.000000  16.000000  16.000000
  Angles:   90.000000  90.000000  90.000000

Effective grid spacing dv^(1/3) = 0.2500

                     log10-error:    total        iterations:
           time      wfs    density  energy       fermi  poisson
iter:   1  14:25:45          +inf    -6.529312    3      1      
iter:   2  14:25:46         -1.62    -6.527683    3      1      
iter:   3  14:25:47         -2.11    -6.527873    2      1      
iter:   4  14:25:48         -2.44    -6.528009    2      1      
iter:   5  14:25:50         -2.73    -6.528000    2      1      
iter:   6  14:25:51         -3.09    -6.527997    2      1      
iter:   7  14:25:52         -3.38    -6.527991    2      1      
iter:   8  14:25:54         -3.68    -6.527988    2      1      
iter:   9  14:25:55         -3.93    -6.527985    2      1      
iter:  10  14:25:56         -4.22    -6.527984    2      1      

Converged after 10 iterations.

Dipole moment: (-0.054589, -0.080852, -0.091614) |e|*Ang

Energy contributions relative to reference atoms: (reference = -35189.668405)

Kinetic:        +26.990241
Potential:      -23.455324
External:        +0.000000
XC:             -10.095057
Entropy (-ST):   -0.016041
Local:           +0.040175
--------------------------
Free energy:     -6.536005
Extrapolated:    -6.527984

Fermi level: -2.60418

 Band  Eigenvalues  Occupancy
    0     -4.73822    2.00000
    1     -3.76911    2.00000
    2     -2.87328    1.99084
    3     -2.83447    1.98021
    4     -2.39313    0.02894
    5     -1.71645    0.00000
    6     -1.59773    0.00000
    7     -1.01530    0.00000
    8      1.49089    0.00000
    9      1.51548    0.00000

Gap: 0.441 eV
Transition (v -> c):
  (s=0, k=0, n=3, [0.00, 0.00, 0.00]) -> (s=0, k=0, n=4, [0.00, 0.00, 0.00])

Forces in eV/Ang:
  0 Na    0.08429    0.04258    0.02034
  1 Na    0.05275   -0.01605    0.06784
  2 Na    0.02172   -0.00502   -0.00589
  3 Na   -0.00656    0.08910   -0.00489
  4 Na   -0.03447    0.05027   -0.06401
  5 Na   -0.06391   -0.09655    0.12518
  6 Na   -0.01474    0.01566    0.00631
  7 Na   -0.03855   -0.08230   -0.14610

System changes: positions 

Initializing position-dependent things.

Density initialized from wave functions
           .--------------------------------------.  
          /|                                      |  
         / |                                      |  
        /  |                                      |  
       /   |                                      |  
      /    |                                      |  
     /     |                                      |  
    /      |                                      |  
   /       |                                      |  
  /        |                                      |  
 *         |                                      |  
 |         |                                      |  
 |         |            Na                        |  
 |         |                                      |  
 |         |                                      |  
 |         |                  Na                  |  
 |         |       Na   Na                        |  
 |         |                                      |  
 |         |                    Na                |  
 |         |            Na                        |  
 |         .--------------------------------------.  
 |        /             Na                       /   
 |       /                                      /    
 |      /                                      /     
 |     /                                      /      
 |    /                                      /       
 |   /                                      /        
 |  /                                      /         
 | /                                      /          
 |/                                      /           
 *--------------------------------------*            

Positions:
   0 Na     9.843284    7.309864    8.493631    ( 0.0000,  0.0000,  0.0000)
   1 Na     8.242367    5.171382    6.108805    ( 0.0000,  0.0000,  0.0000)
   2 Na     7.125375    9.624274    9.425962    ( 0.0000,  0.0000,  0.0000)
   3 Na     7.081578    9.130790    6.322909    ( 0.0000,  0.0000,  0.0000)
   4 Na     5.835104    6.335567    8.160550    ( 0.0000,  0.0000,  0.0000)
   5 Na     7.520161    7.392986    3.592558    ( 0.0000,  0.0000,  0.0000)
   6 Na    10.542294    8.097135    5.531725    ( 0.0000,  0.0000,  0.0000)
   7 Na     7.891845    6.360250   10.920089    ( 0.0000,  0.0000,  0.0000)

Unit cell:
           periodic     x           y           z      points  spacing
  1. axis:    no    16.000000    0.000000    0.000000    64     0.2500
  2. axis:    no     0.000000   16.000000    0.000000    64     0.2500
  3. axis:    no     0.000000    0.000000   16.000000    64     0.2500

  Lengths:  16.000000  16.000000  16.000000
  Angles:   90.000000  90.000000  90.000000

Effective grid spacing dv^(1/3) = 0.2500

                     log10-error:    total        iterations:
           time      wfs    density  energy       fermi  poisson
iter:   1  14:25:58          +inf    -6.566603    3      1      
iter:   2  14:26:00         -1.72    -6.565240    3      1      
iter:   3  14:26:01         -2.18    -6.565288    2      1      
iter:   4  14:26:02         -2.50    -6.565369    2      1      
iter:   5  14:26:04         -2.85    -6.565365    2      1      
iter:   6  14:26:05         -3.25    -6.565356    1      1      
iter:   7  14:26:06         -3.61    -6.565355    2      1      
iter:   8  14:26:08         -3.86    -6.565354    2      1      
iter:   9  14:26:09         -4.12    -6.565354    2      1      

Converged after 9 iterations.

Dipole moment: (-0.061734, -0.093082, -0.088160) |e|*Ang

Energy contributions relative to reference atoms: (reference = -35189.668405)

Kinetic:        +25.336100
Potential:      -22.216677
External:        +0.000000
XC:              -9.718342
Entropy (-ST):   -0.009284
Local:           +0.038207
--------------------------
Free energy:     -6.569996
Extrapolated:    -6.565354

Fermi level: -2.59219

 Band  Eigenvalues  Occupancy
    0     -4.69142    2.00000
    1     -3.72960    2.00000
    2     -2.89841    1.99563
    3     -2.85381    1.98937
    4     -2.34791    0.01499
    5     -1.74461    0.00000
    6     -1.60581    0.00000
    7     -1.03955    0.00000
    8      1.62362    0.00000
    9      1.68290    0.00000

Gap: 0.506 eV
Transition (v -> c):
  (s=0, k=0, n=3, [0.00, 0.00, 0.00]) -> (s=0, k=0, n=4, [0.00, 0.00, 0.00])

Forces in eV/Ang:
  0 Na    0.05020    0.04781    0.00604
  1 Na    0.04483    0.02726    0.08729
  2 Na    0.03157   -0.04374   -0.01539
  3 Na    0.01429    0.06275    0.00519
  4 Na    0.00679    0.06656   -0.07574
  5 Na   -0.04974   -0.09823    0.15267
  6 Na   -0.05562    0.00308    0.01114
  7 Na   -0.04423   -0.06725   -0.17226

System changes: positions 

Initializing position-dependent things.

Density initialized from wave functions
           .--------------------------------------.  
          /|                                      |  
         / |                                      |  
        /  |                                      |  
       /   |                                      |  
      /    |                                      |  
     /     |                                      |  
    /      |                                      |  
   /       |                                      |  
  /        |                                      |  
 *         |                                      |  
 |         |                                      |  
 |         |            Na                        |  
 |         |            Na                        |  
 |         |                                      |  
 |         |                  Na                  |  
 |         |       Na   Na                        |  
 |         |                                      |  
 |         |                    Na                |  
 |         |            Na                        |  
 |         .--------------------------------------.  
 |        /             Na                       /   
 |       /                                      /    
 |      /                                      /     
 |     /                                      /      
 |    /                                      /       
 |   /                                      /        
 |  /                                      /         
 | /                                      /          
 |/                                      /           
 *--------------------------------------*            

Positions:
   0 Na     9.908073    7.333014    8.512132    ( 0.0000,  0.0000,  0.0000)
   1 Na     8.277306    5.142438    6.145589    ( 0.0000,  0.0000,  0.0000)
   2 Na     7.134458    9.638487    9.427933    ( 0.0000,  0.0000,  0.0000)
   3 Na     7.069304    9.197147    6.315096    ( 0.0000,  0.0000,  0.0000)
   4 Na     5.795207    6.358435    8.123100    ( 0.0000,  0.0000,  0.0000)
   5 Na     7.475132    7.336789    3.652107    ( 0.0000,  0.0000,  0.0000)
   6 Na    10.550749    8.112415    5.531964    ( 0.0000,  0.0000,  0.0000)
   7 Na     7.872340    6.302828   10.847384    ( 0.0000,  0.0000,  0.0000)

Unit cell:
           periodic     x           y           z      points  spacing
  1. axis:    no    16.000000    0.000000    0.000000    64     0.2500
  2. axis:    no     0.000000   16.000000    0.000000    64     0.2500
  3. axis:    no     0.000000    0.000000   16.000000    64     0.2500

  Lengths:  16.000000  16.000000  16.000000
  Angles:   90.000000  90.000000  90.000000

Effective grid spacing dv^(1/3) = 0.2500

                     log10-error:    total        iterations:
           time      wfs    density  energy       fermi  poisson
iter:   1  14:26:11          +inf    -6.618242    3      1      
iter:   2  14:26:12         -1.75    -6.616735    2      1      
iter:   3  14:26:14         -2.17    -6.616665    2      1      
iter:   4  14:26:15         -2.46    -6.616696    2      1      
iter:   5  14:26:16         -2.94    -6.616689    2      1      
iter:   6  14:26:18         -3.25    -6.616680    1      1      
iter:   7  14:26:19         -3.68    -6.616679    2      1      
iter:   8  14:26:20         -4.04    -6.616679    1      1      

Converged after 8 iterations.

Dipole moment: (-0.066597, -0.102293, -0.080750) |e|*Ang

Energy contributions relative to reference atoms: (reference = -35189.668405)

Kinetic:        +24.713575
Potential:      -21.787115
External:        +0.000000
XC:              -9.577091
Entropy (-ST):   -0.004541
Local:           +0.036222
--------------------------
Free energy:     -6.618950
Extrapolated:    -6.616679

Fermi level: -2.57696

 Band  Eigenvalues  Occupancy
    0     -4.67036    2.00000
    1     -3.69989    2.00000
    2     -2.92778    1.99821
    3     -2.87985    1.99533
    4     -2.29035    0.00646
    5     -1.76558    0.00000
    6     -1.60742    0.00000
    7     -1.06223    0.00000
    8      1.67668    0.00000
    9      1.79404    0.00000

Gap: 0.589 eV
Transition (v -> c):
  (s=0, k=0, n=3, [0.00, 0.00, 0.00]) -> (s=0, k=0, n=4, [0.00, 0.00, 0.00])

Forces in eV/Ang:
  0 Na    0.03139    0.05152    0.00132
  1 Na    0.04321    0.04475    0.10894
  2 Na    0.03771   -0.06527   -0.01470
  3 Na    0.02769    0.04908    0.00846
  4 Na    0.02496    0.07752   -0.09298
  5 Na   -0.04422   -0.09590    0.16073
  6 Na   -0.07822   -0.00300    0.00825
  7 Na   -0.04383   -0.06097   -0.18205

System changes: positions 

Initializing position-dependent things.

Density initialized from wave functions
           .--------------------------------------.  
          /|                                      |  
         / |                                      |  
        /  |                                      |  
       /   |                                      |  
      /    |                                      |  
     /     |                                      |  
    /      |                                      |  
   /       |                                      |  
  /        |                                      |  
 *         |                                      |  
 |         |                                      |  
 |         |            Na                        |  
 |         |            Na                        |  
 |         |                                      |  
 |         |                  Na                  |  
 |         |       Na   Na                        |  
 |         |                                      |  
 |         |                    Na                |  
 |         |            Na                        |  
 |         .--------------------------------------.  
 |        /             Na                       /   
 |       /                                      /    
 |      /                                      /     
 |     /                                      /      
 |    /                                      /       
 |   /                                      /        
 |  /                                      /         
 | /                                      /          
 |/                                      /           
 *--------------------------------------*            

Positions:
   0 Na     9.959121    7.362130    8.524615    ( 0.0000,  0.0000,  0.0000)
   1 Na     8.312393    5.135982    6.197517    ( 0.0000,  0.0000,  0.0000)
   2 Na     7.150566    9.630080    9.424682    ( 0.0000,  0.0000,  0.0000)
   3 Na     7.068610    9.253726    6.312392    ( 0.0000,  0.0000,  0.0000)
   4 Na     5.775895    6.394808    8.075021    ( 0.0000,  0.0000,  0.0000)
   5 Na     7.433673    7.273386    3.736020    ( 0.0000,  0.0000,  0.0000)
   6 Na    10.535264    8.121558    5.534820    ( 0.0000,  0.0000,  0.0000)
   7 Na     7.847204    6.248816   10.749145    ( 0.0000,  0.0000,  0.0000)

Unit cell:
           periodic     x           y           z      points  spacing
  1. axis:    no    16.000000    0.000000    0.000000    64     0.2500
  2. axis:    no     0.000000   16.000000    0.000000    64     0.2500
  3. axis:    no     0.000000    0.000000   16.000000    64     0.2500

  Lengths:  16.000000  16.000000  16.000000
  Angles:   90.000000  90.000000  90.000000

Effective grid spacing dv^(1/3) = 0.2500

                     log10-error:    total        iterations:
           time      wfs    density  energy       fermi  poisson
iter:   1  14:26:22          +inf    -6.685439    3      1      
iter:   2  14:26:24         -1.80    -6.684101    2      1      
iter:   3  14:26:25         -2.18    -6.683966    2      1      
iter:   4  14:26:26         -2.44    -6.683947    2      1      
iter:   5  14:26:28         -3.04    -6.683942    1      1      
iter:   6  14:26:29         -3.25    -6.683937    2      1      
iter:   7  14:26:30         -3.75    -6.683937    1      1      
iter:   8  14:26:32         -4.03    -6.683937    1      1      

Converged after 8 iterations.

Dipole moment: (-0.067911, -0.106040, -0.071466) |e|*Ang

Energy contributions relative to reference atoms: (reference = -35189.668405)

Kinetic:        +25.097717
Potential:      -22.144931
External:        +0.000000
XC:              -9.672504
Entropy (-ST):   -0.002030
Local:           +0.036797
--------------------------
Free energy:     -6.684952
Extrapolated:    -6.683937

Fermi level: -2.55911

 Band  Eigenvalues  Occupancy
    0     -4.67602    2.00000
    1     -3.68101    2.00000
    2     -2.95664    1.99930
    3     -2.90845    1.99815
    4     -2.22594    0.00255
    5     -1.77402    0.00000
    6     -1.60104    0.00000
    7     -1.08319    0.00000
    8      1.66665    0.00000
    9      1.81003    0.00000

Gap: 0.683 eV
Transition (v -> c):
  (s=0, k=0, n=3, [0.00, 0.00, 0.00]) -> (s=0, k=0, n=4, [0.00, 0.00, 0.00])

Forces in eV/Ang:
  0 Na    0.02473    0.05435    0.00648
  1 Na    0.05068    0.03977    0.13098
  2 Na    0.04038   -0.07257   -0.00511
  3 Na    0.03387    0.04687    0.00306
  4 Na    0.01944    0.08442   -0.11304
  5 Na   -0.04965   -0.08757    0.15083
  6 Na   -0.08434   -0.00316   -0.00170
  7 Na   -0.03532   -0.06205   -0.17226

System changes: positions 

Initializing position-dependent things.

Density initialized from wave functions
           .--------------------------------------.  
          /|                                      |  
         / |                                      |  
        /  |                                      |  
       /   |                                      |  
      /    |                                      |  
     /     |                                      |  
    /      |                                      |  
   /       |                                      |  
  /        |                                      |  
 *         |                                      |  
 |         |                                      |  
 |         |            Na                        |  
 |         |            Na                        |  
 |         |                                      |  
 |         |                  Na                  |  
 |         |       Na   Na                        |  
 |         |                                      |  
 |         |                    Na                |  
 |         |             Na                       |  
 |         .--------------------------------------.  
 |        /             Na                       /   
 |       /                                      /    
 |      /                                      /     
 |     /                                      /      
 |    /                                      /       
 |   /                                      /        
 |  /                                      /         
 | /                                      /          
 |/                                      /           
 *--------------------------------------*            

Positions:
   0 Na     9.998158    7.394623    8.533653    ( 0.0000,  0.0000,  0.0000)
   1 Na     8.347345    5.143321    6.262362    ( 0.0000,  0.0000,  0.0000)
   2 Na     7.171180    9.605904    9.420158    ( 0.0000,  0.0000,  0.0000)
   3 Na     7.076637    9.301637    6.312041    ( 0.0000,  0.0000,  0.0000)
   4 Na     5.769682    6.439630    8.017207    ( 0.0000,  0.0000,  0.0000)
   5 Na     7.394999    7.209450    3.830281    ( 0.0000,  0.0000,  0.0000)
   6 Na    10.503531    8.126367    5.537260    ( 0.0000,  0.0000,  0.0000)
   7 Na     7.821142    6.198755   10.640344    ( 0.0000,  0.0000,  0.0000)

Unit cell:
           periodic     x           y           z      points  spacing
  1. axis:    no    16.000000    0.000000    0.000000    64     0.2500
  2. axis:    no     0.000000   16.000000    0.000000    64     0.2500
  3. axis:    no     0.000000    0.000000   16.000000    64     0.2500

  Lengths:  16.000000  16.000000  16.000000
  Angles:   90.000000  90.000000  90.000000

Effective grid spacing dv^(1/3) = 0.2500

                     log10-error:    total        iterations:
           time      wfs    density  energy       fermi  poisson
iter:   1  14:26:34          +inf    -6.761663    2      1      
iter:   2  14:26:35         -1.84    -6.760417    2      1      
iter:   3  14:26:36         -2.18    -6.760236    2      1      
iter:   4  14:26:38         -2.43    -6.760189    2      1      
iter:   5  14:26:39         -3.06    -6.760187    1      1      
iter:   6  14:26:40         -3.25    -6.760184    2      1      
iter:   7  14:26:42         -3.87    -6.760184    1      1      
iter:   8  14:26:43         -4.16    -6.760184    1      1      

Converged after 8 iterations.

Dipole moment: (-0.066777, -0.105579, -0.062546) |e|*Ang

Energy contributions relative to reference atoms: (reference = -35189.668405)

Kinetic:        +26.071424
Potential:      -22.960990
External:        +0.000000
XC:              -9.907220
Entropy (-ST):   -0.000875
Local:           +0.037040
--------------------------
Free energy:     -6.760621
Extrapolated:    -6.760184

Fermi level: -2.53935

 Band  Eigenvalues  Occupancy
    0     -4.69748    2.00000
    1     -3.66737    2.00000
    2     -2.98385    1.99972
    3     -2.93680    1.99929
    4     -2.15835    0.00098
    5     -1.77147    0.00000
    6     -1.58875    0.00000
    7     -1.10780    0.00000
    8      1.62156    0.00000
    9      1.76839    0.00000

Gap: 0.778 eV
Transition (v -> c):
  (s=0, k=0, n=3, [0.00, 0.00, 0.00]) -> (s=0, k=0, n=4, [0.00, 0.00, 0.00])

Forces in eV/Ang:
  0 Na    0.02626    0.05686    0.01652
  1 Na    0.06378    0.02152    0.14918
  2 Na    0.04007   -0.07050    0.00797
  3 Na    0.03605    0.05208   -0.00577
  4 Na   -0.00036    0.08797   -0.13212
  5 Na   -0.06168   -0.07675    0.13281
  6 Na   -0.07981   -0.00046   -0.01486
  7 Na   -0.02392   -0.06837   -0.15667

System changes: positions 

Initializing position-dependent things.

Density initialized from wave functions
           .--------------------------------------.  
          /|                                      |  
         / |                                      |  
        /  |                                      |  
       /   |                                      |  
      /    |                                      |  
     /     |                                      |  
    /      |                                      |  
   /       |                                      |  
  /        |                                      |  
 *         |                                      |  
 |         |                                      |  
 |         |             Na                       |  
 |         |            Na                        |  
 |         |                                      |  
 |         |                  Na                  |  
 |         |       Na   Na                        |  
 |         |                                      |  
 |         |                    Na                |  
 |         |             Na                       |  
 |         .--------------------------------------.  
 |        /            Na                        /   
 |       /                                      /    
 |      /                                      /     
 |     /                                      /      
 |    /                                      /       
 |   /                                      /        
 |  /                                      /         
 | /                                      /          
 |/                                      /           
 *--------------------------------------*            

Positions:
   0 Na    10.029304    7.428936    8.542334    ( 0.0000,  0.0000,  0.0000)
   1 Na     8.383807    5.155217    6.337746    ( 0.0000,  0.0000,  0.0000)
   2 Na     7.194051    9.573088    9.417688    ( 0.0000,  0.0000,  0.0000)
   3 Na     7.090281    9.344295    6.311412    ( 0.0000,  0.0000,  0.0000)
   4 Na     5.767741    6.489187    7.950481    ( 0.0000,  0.0000,  0.0000)
   5 Na     7.356575    7.148845    3.924842    ( 0.0000,  0.0000,  0.0000)
   6 Na    10.463432    8.128980    5.536679    ( 0.0000,  0.0000,  0.0000)
   7 Na     7.797418    6.150913   10.530869    ( 0.0000,  0.0000,  0.0000)

Unit cell:
           periodic     x           y           z      points  spacing
  1. axis:    no    16.000000    0.000000    0.000000    64     0.2500
  2. axis:    no     0.000000   16.000000    0.000000    64     0.2500
  3. axis:    no     0.000000    0.000000   16.000000    64     0.2500

  Lengths:  16.000000  16.000000  16.000000
  Angles:   90.000000  90.000000  90.000000

Effective grid spacing dv^(1/3) = 0.2500

                     log10-error:    total        iterations:
           time      wfs    density  energy       fermi  poisson
iter:   1  14:26:45          +inf    -6.841503    2      1      
iter:   2  14:26:46         -1.87    -6.840331    2      1      
iter:   3  14:26:48         -2.19    -6.840129    2      1      
iter:   4  14:26:49         -2.43    -6.840076    2      1      
iter:   5  14:26:50         -3.07    -6.840074    1      1      
iter:   6  14:26:52         -3.26    -6.840072    2      1      
iter:   7  14:26:53         -3.94    -6.840072    1      1      
iter:   8  14:26:54         -4.25    -6.840072    1      1      

Converged after 8 iterations.

Dipole moment: (-0.064488, -0.103003, -0.054858) |e|*Ang

Energy contributions relative to reference atoms: (reference = -35189.668405)

Kinetic:        +27.226360
Potential:      -23.915138
External:        +0.000000
XC:             -10.188600
Entropy (-ST):   -0.000376
Local:           +0.037494
--------------------------
Free energy:     -6.840260
Extrapolated:    -6.840072

Fermi level: -2.51797

 Band  Eigenvalues  Occupancy
    0     -4.72375    2.00000
    1     -3.65326    2.00000
    2     -3.00919    1.99989
    3     -2.96288    1.99973
    4     -2.08968    0.00038
    5     -1.76089    0.00000
    6     -1.57289    0.00000
    7     -1.14015    0.00000
    8      1.56642    0.00000
    9      1.70491    0.00000

Gap: 0.873 eV
Transition (v -> c):
  (s=0, k=0, n=3, [0.00, 0.00, 0.00]) -> (s=0, k=0, n=4, [0.00, 0.00, 0.00])

Forces in eV/Ang:
  0 Na    0.03139    0.06031    0.02607
  1 Na    0.07669   -0.00016    0.16229
  2 Na    0.03692   -0.06363    0.02026
  3 Na    0.03708    0.06177   -0.01361
  4 Na   -0.02510    0.08837   -0.14802
  5 Na   -0.07566   -0.06920    0.11876
  6 Na   -0.07088    0.00217   -0.02652
  7 Na   -0.01115   -0.07838   -0.14238

System changes: positions 

Initializing position-dependent things.

Density initialized from wave functions
           .--------------------------------------.  
          /|                                      |  
         / |                                      |  
        /  |                                      |  
       /   |                                      |  
      /    |                                      |  
     /     |                                      |  
    /      |                                      |  
   /       |                                      |  
  /        |                                      |  
 *         |                                      |  
 |         |                                      |  
 |         |             Na                       |  
 |         |            Na                        |  
 |         |                                      |  
 |         |                  Na                  |  
 |         |       Na   Na                        |  
 |         |                                      |  
 |         |                   Na                 |  
 |         |             Na                       |  
 |         .--------------------------------------.  
 |        /            Na                        /   
 |       /                                      /    
 |      /                                      /     
 |     /                                      /      
 |    /                                      /       
 |   /                                      /        
 |  /                                      /         
 | /                                      /          
 |/                                      /           
 *--------------------------------------*            

Positions:
   0 Na    10.055457    7.464754    8.552485    ( 0.0000,  0.0000,  0.0000)
   1 Na     8.423284    5.166057    6.422373    ( 0.0000,  0.0000,  0.0000)
   2 Na     7.217682    9.535876    9.419116    ( 0.0000,  0.0000,  0.0000)
   3 Na     7.107926    9.384557    6.309072    ( 0.0000,  0.0000,  0.0000)
   4 Na     5.764179    6.541584    7.875072    ( 0.0000,  0.0000,  0.0000)
   5 Na     7.316179    7.092780    4.015640    ( 0.0000,  0.0000,  0.0000)
   6 Na    10.419570    8.130541    5.531711    ( 0.0000,  0.0000,  0.0000)
   7 Na     7.778096    6.103312   10.425171    ( 0.0000,  0.0000,  0.0000)

Unit cell:
           periodic     x           y           z      points  spacing
  1. axis:    no    16.000000    0.000000    0.000000    64     0.2500
  2. axis:    no     0.000000   16.000000    0.000000    64     0.2500
  3. axis:    no     0.000000    0.000000   16.000000    64     0.2500

  Lengths:  16.000000  16.000000  16.000000
  Angles:   90.000000  90.000000  90.000000

Effective grid spacing dv^(1/3) = 0.2500

                     log10-error:    total        iterations:
           time      wfs    density  energy       fermi  poisson
iter:   1  14:26:56          +inf    -6.923562    2      1      
iter:   2  14:26:58         -1.88    -6.922455    2      1      
iter:   3  14:26:59         -2.19    -6.922247    2      1      
iter:   4  14:27:00         -2.45    -6.922196    2      1      
iter:   5  14:27:02         -3.06    -6.922195    1      1      
iter:   6  14:27:03         -3.27    -6.922193    1      1      
iter:   7  14:27:04         -4.02    -6.922193    1      1      

Converged after 7 iterations.

Dipole moment: (-0.061919, -0.099758, -0.048720) |e|*Ang

Energy contributions relative to reference atoms: (reference = -35189.668405)

Kinetic:        +28.310855
Potential:      -24.810475
External:        +0.000000
XC:             -10.460483
Entropy (-ST):   -0.000165
Local:           +0.037992
--------------------------
Free energy:     -6.922276
Extrapolated:    -6.922193

Fermi level: -2.49539

 Band  Eigenvalues  Occupancy
    0     -4.74842    2.00000
    1     -3.63602    2.00000
    2     -3.03289    1.99996
    3     -2.98598    1.99989
    4     -2.02112    0.00015
    5     -1.74458    0.00000
    6     -1.55526    0.00000
    7     -1.18174    0.00000
    8      1.51315    0.00000
    9      1.64064    0.00000

Gap: 0.965 eV
Transition (v -> c):
  (s=0, k=0, n=3, [0.00, 0.00, 0.00]) -> (s=0, k=0, n=4, [0.00, 0.00, 0.00])

Forces in eV/Ang:
  0 Na    0.03941    0.06494    0.03203
  1 Na    0.08472   -0.01934    0.16868
  2 Na    0.03089   -0.05502    0.02843
  3 Na    0.03788    0.07349   -0.01714
  4 Na   -0.04530    0.08524   -0.15604
  5 Na   -0.08551   -0.06569    0.10568
  6 Na   -0.05949    0.00289   -0.03442
  7 Na   -0.00303   -0.08636   -0.12893

System changes: positions 

Initializing position-dependent things.

Density initialized from wave functions
           .--------------------------------------.  
          /|                                      |  
         / |                                      |  
        /  |                                      |  
       /   |                                      |  
      /    |                                      |  
     /     |                                      |  
    /      |                                      |  
   /       |                                      |  
  /        |                                      |  
 *         |                                      |  
 |         |                                      |  
 |         |             Na                       |  
 |         |            Na                        |  
 |         |                                      |  
 |         |                  Na                  |  
 |         |       Na   Na                        |  
 |         |                                      |  
 |         |                   Na                 |  
 |         |             Na                       |  
 |         .-----------Na-------------------------.  
 |        /                                      /   
 |       /                                      /    
 |      /                                      /     
 |     /                                      /      
 |    /                                      /       
 |   /                                      /        
 |  /                                      /         
 | /                                      /          
 |/                                      /           
 *--------------------------------------*            

Positions:
   0 Na    10.079399    7.502550    8.565044    ( 0.0000,  0.0000,  0.0000)
   1 Na     8.466729    5.172354    6.515556    ( 0.0000,  0.0000,  0.0000)
   2 Na     7.240887    9.496923    9.425190    ( 0.0000,  0.0000,  0.0000)
   3 Na     7.128703    9.425240    6.304598    ( 0.0000,  0.0000,  0.0000)
   4 Na     5.755476    6.595704    7.791286    ( 0.0000,  0.0000,  0.0000)
   5 Na     7.272325    7.040934    4.100838    ( 0.0000,  0.0000,  0.0000)
   6 Na    10.374979    8.131557    5.521776    ( 0.0000,  0.0000,  0.0000)
   7 Na     7.763642    6.054359   10.325029    ( 0.0000,  0.0000,  0.0000)

Unit cell:
           periodic     x           y           z      points  spacing
  1. axis:    no    16.000000    0.000000    0.000000    64     0.2500
  2. axis:    no     0.000000   16.000000    0.000000    64     0.2500
  3. axis:    no     0.000000    0.000000   16.000000    64     0.2500

  Lengths:  16.000000  16.000000  16.000000
  Angles:   90.000000  90.000000  90.000000

Effective grid spacing dv^(1/3) = 0.2500

                     log10-error:    total        iterations:
           time      wfs    density  energy       fermi  poisson
iter:   1  14:27:06          +inf    -7.006853    2      1      
iter:   2  14:27:08         -1.88    -7.005788    2      1      
iter:   3  14:27:09         -2.20    -7.005577    2      1      
iter:   4  14:27:10         -2.47    -7.005531    2      1      
iter:   5  14:27:11         -3.04    -7.005530    1      1      
iter:   6  14:27:13         -3.25    -7.005528    1      1      
iter:   7  14:27:14         -4.06    -7.005528    1      1      

Converged after 7 iterations.

Dipole moment: (-0.059607, -0.096673, -0.043759) |e|*Ang

Energy contributions relative to reference atoms: (reference = -35189.668405)

Kinetic:        +29.170275
Potential:      -25.527248
External:        +0.000000
XC:             -10.687113
Entropy (-ST):   -0.000074
Local:           +0.038595
--------------------------
Free energy:     -7.005565
Extrapolated:    -7.005528

Fermi level: -2.47219

 Band  Eigenvalues  Occupancy
    0     -4.76754    2.00000
    1     -3.61469    2.00000
    2     -3.05509    1.99998
    3     -3.00628    1.99995
    4     -1.95356    0.00006
    5     -1.72455    0.00000
    6     -1.53718    0.00000
    7     -1.23276    0.00000
    8      1.46701    0.00000
    9      1.58939    0.00000

Gap: 1.053 eV
Transition (v -> c):
  (s=0, k=0, n=3, [0.00, 0.00, 0.00]) -> (s=0, k=0, n=4, [0.00, 0.00, 0.00])

Forces in eV/Ang:
  0 Na    0.04747    0.06983    0.03247
  1 Na    0.08348   -0.02981    0.15710
  2 Na    0.02184   -0.04683    0.03092
  3 Na    0.03960    0.08315   -0.01541
  4 Na   -0.05543    0.07789   -0.15108
  5 Na   -0.08720   -0.06518    0.10046
  6 Na   -0.04964   -0.00041   -0.03728
  7 Na   -0.00062   -0.08902   -0.12135

System changes: positions 

Initializing position-dependent things.

Density initialized from wave functions
           .--------------------------------------.  
          /|                                      |  
         / |                                      |  
        /  |                                      |  
       /   |                                      |  
      /    |                                      |  
     /     |                                      |  
    /      |                                      |  
   /       |                                      |  
  /        |                                      |  
 *         |                                      |  
 |         |                                      |  
 |         |             Na                       |  
 |         |            Na                        |  
 |         |                                      |  
 |         |                  Na                  |  
 |         |       Na   Na                        |  
 |         |                                      |  
 |         |                   Na                 |  
 |         |             Na                       |  
 |         .-----------Na-------------------------.  
 |        /                                      /   
 |       /                                      /    
 |      /                                      /     
 |     /                                      /      
 |    /                                      /       
 |   /                                      /        
 |  /                                      /         
 | /                                      /          
 |/                                      /           
 *--------------------------------------*            

Positions:
   0 Na    10.102382    7.540549    8.579185    ( 0.0000,  0.0000,  0.0000)
   1 Na     8.510996    5.172342    6.608093    ( 0.0000,  0.0000,  0.0000)
   2 Na     7.260962    9.460744    9.435085    ( 0.0000,  0.0000,  0.0000)
   3 Na     7.150635    9.466214    6.298753    ( 0.0000,  0.0000,  0.0000)
   4 Na     5.740779    6.646889    7.706479    ( 0.0000,  0.0000,  0.0000)
   5 Na     7.227475    6.995102    4.176132    ( 0.0000,  0.0000,  0.0000)
   6 Na    10.334490    8.131856    5.508001    ( 0.0000,  0.0000,  0.0000)
   7 Na     7.754162    6.006104   10.235877    ( 0.0000,  0.0000,  0.0000)

Unit cell:
           periodic     x           y           z      points  spacing
  1. axis:    no    16.000000    0.000000    0.000000    64     0.2500
  2. axis:    no     0.000000   16.000000    0.000000    64     0.2500
  3. axis:    no     0.000000    0.000000   16.000000    64     0.2500

  Lengths:  16.000000  16.000000  16.000000
  Angles:   90.000000  90.000000  90.000000

Effective grid spacing dv^(1/3) = 0.2500

                     log10-error:    total        iterations:
           time      wfs    density  energy       fermi  poisson
iter:   1  14:27:16          +inf    -7.082373    2      1      
iter:   2  14:27:18         -1.90    -7.081430    2      1      
iter:   3  14:27:19         -2.22    -7.081238    2      1      
iter:   4  14:27:20         -2.51    -7.081198    2      1      
iter:   5  14:27:22         -3.06    -7.081197    1      1      
iter:   6  14:27:23         -3.26    -7.081197    1      1      
iter:   7  14:27:24         -4.08    -7.081197    1      1      

Converged after 7 iterations.

Dipole moment: (-0.057705, -0.093855, -0.039986) |e|*Ang

Energy contributions relative to reference atoms: (reference = -35189.668405)

Kinetic:        +29.704185
Potential:      -25.984425
External:        +0.000000
XC:             -10.839850
Entropy (-ST):   -0.000036
Local:           +0.038910
--------------------------
Free energy:     -7.081215
Extrapolated:    -7.081197

Fermi level: -2.45040

 Band  Eigenvalues  Occupancy
    0     -4.77869    2.00000
    1     -3.59144    2.00000
    2     -3.07456    1.99999
    3     -3.02382    1.99998
    4     -1.89123    0.00003
    5     -1.70505    0.00000
    6     -1.52112    0.00000
    7     -1.28826    0.00000
    8      1.43133    0.00000
    9      1.56075    0.00000

Gap: 1.133 eV
Transition (v -> c):
  (s=0, k=0, n=3, [0.00, 0.00, 0.00]) -> (s=0, k=0, n=4, [0.00, 0.00, 0.00])

Forces in eV/Ang:
  0 Na    0.05142    0.07308    0.02755
  1 Na    0.07357   -0.03022    0.13090
  2 Na    0.01105   -0.04204    0.02765
  3 Na    0.04118    0.08697   -0.00898
  4 Na   -0.05278    0.06720   -0.13036
  5 Na   -0.07883   -0.06424    0.09786
  6 Na   -0.04168   -0.00743   -0.03351
  7 Na   -0.00498   -0.08193   -0.11120

System changes: positions 

Initializing position-dependent things.

Density initialized from wave functions
           .--------------------------------------.  
          /|                                      |  
         / |                                      |  
        /  |                                      |  
       /   |                                      |  
      /    |                                      |  
     /     |                                      |  
    /      |                                      |  
   /       |                                      |  
  /        |                                      |  
 *         |                                      |  
 |         |                                      |  
 |         |             Na                       |  
 |         |                                      |  
 |         |            Na                        |  
 |         |                  Na                  |  
 |         |       Na   Na                        |  
 |         |                                      |  
 |         |             Na    Na                 |  
 |         |                                      |  
 |         .-----------Na-------------------------.  
 |        /                                      /   
 |       /                                      /    
 |      /                                      /     
 |     /                                      /      
 |    /                                      /       
 |   /                                      /        
 |  /                                      /         
 | /                                      /          
 |/                                      /           
 *--------------------------------------*            

Positions:
   0 Na    10.126110    7.579662    8.594089    ( 0.0000,  0.0000,  0.0000)
   1 Na     8.555103    5.167077    6.697077    ( 0.0000,  0.0000,  0.0000)
   2 Na     7.277215    9.427398    9.447445    ( 0.0000,  0.0000,  0.0000)
   3 Na     7.173618    9.509001    6.292715    ( 0.0000,  0.0000,  0.0000)
   4 Na     5.721308    6.694764    7.623270    ( 0.0000,  0.0000,  0.0000)
   5 Na     7.182338    6.953067    4.244590    ( 0.0000,  0.0000,  0.0000)
   6 Na    10.298295    8.130736    5.491862    ( 0.0000,  0.0000,  0.0000)
   7 Na     7.747524    5.958526   10.155396    ( 0.0000,  0.0000,  0.0000)

Unit cell:
           periodic     x           y           z      points  spacing
  1. axis:    no    16.000000    0.000000    0.000000    64     0.2500
  2. axis:    no     0.000000   16.000000    0.000000    64     0.2500
  3. axis:    no     0.000000    0.000000   16.000000    64     0.2500

  Lengths:  16.000000  16.000000  16.000000
  Angles:   90.000000  90.000000  90.000000

Effective grid spacing dv^(1/3) = 0.2500

                     log10-error:    total        iterations:
           time      wfs    density  energy       fermi  poisson
iter:   1  14:27:26          +inf    -7.145982    2      1      
iter:   2  14:27:28         -1.92    -7.145115    1      1      
iter:   3  14:27:29         -2.24    -7.144935    2      1      
iter:   4  14:27:30         -2.54    -7.144900    2      1      
iter:   5  14:27:31         -3.07    -7.144899    1      1      
iter:   6  14:27:33         -3.27    -7.144898    1      1      
iter:   7  14:27:34         -4.06    -7.144898    1      1      

Converged after 7 iterations.

Dipole moment: (-0.055714, -0.090590, -0.036729) |e|*Ang

Energy contributions relative to reference atoms: (reference = -35189.668405)

Kinetic:        +29.991830
Potential:      -26.244328
External:        +0.000000
XC:             -10.931210
Entropy (-ST):   -0.000018
Local:           +0.038819
--------------------------
Free energy:     -7.144908
Extrapolated:    -7.144898

Fermi level: -2.43045

 Band  Eigenvalues  Occupancy
    0     -4.78353    2.00000
    1     -3.56813    2.00000
    2     -3.09149    2.00000
    3     -3.04029    1.99999
    4     -1.83319    0.00001
    5     -1.68843    0.00000
    6     -1.50754    0.00000
    7     -1.34531    0.00000
    8      1.40370    0.00000
    9      1.55186    0.00000

Gap: 1.207 eV
Transition (v -> c):
  (s=0, k=0, n=3, [0.00, 0.00, 0.00]) -> (s=0, k=0, n=4, [0.00, 0.00, 0.00])

Forces in eV/Ang:
  0 Na    0.04969    0.07353    0.01932
  1 Na    0.05980   -0.02439    0.09246
  2 Na   -0.00083   -0.04101    0.02091
  3 Na    0.04253    0.08299   -0.00085
  4 Na   -0.04152    0.05383   -0.09726
  5 Na   -0.06238   -0.06073    0.09017
  6 Na   -0.03436   -0.01725   -0.02736
  7 Na   -0.01275   -0.06523   -0.09705

System changes: positions 

Initializing position-dependent things.

Density initialized from wave functions
           .--------------------------------------.  
          /|                                      |  
         / |                                      |  
        /  |                                      |  
       /   |                                      |  
      /    |                                      |  
     /     |                                      |  
    /      |                                      |  
   /       |                                      |  
  /        |                                      |  
 *         |                                      |  
 |         |                                      |  
 |         |             Na                       |  
 |         |                                      |  
 |         |            Na     Na                 |  
 |         |                                      |  
 |         |       Na    Na                       |  
 |         |                                      |  
 |         |             Na    Na                 |  
 |         |                                      |  
 |         .-----------Na-------------------------.  
 |        /                                      /   
 |       /                                      /    
 |      /                                      /     
 |     /                                      /      
 |    /                                      /       
 |   /                                      /        
 |  /                                      /         
 | /                                      /          
 |/                                      /           
 *--------------------------------------*            

Positions:
   0 Na    10.150304    7.619163    8.608110    ( 0.0000,  0.0000,  0.0000)
   1 Na     8.596386    5.158598    6.775806    ( 0.0000,  0.0000,  0.0000)
   2 Na     7.288423    9.397173    9.460324    ( 0.0000,  0.0000,  0.0000)
   3 Na     7.197057    9.552338    6.287901    ( 0.0000,  0.0000,  0.0000)
   4 Na     5.700006    6.737267    7.547851    ( 0.0000,  0.0000,  0.0000)
   5 Na     7.140049    6.914666    4.305916    ( 0.0000,  0.0000,  0.0000)
   6 Na    10.267333    8.127136    5.475237    ( 0.0000,  0.0000,  0.0000)
   7 Na     7.741739    5.914474   10.084473    ( 0.0000,  0.0000,  0.0000)

Unit cell:
           periodic     x           y           z      points  spacing
  1. axis:    no    16.000000    0.000000    0.000000    64     0.2500
  2. axis:    no     0.000000   16.000000    0.000000    64     0.2500
  3. axis:    no     0.000000    0.000000   16.000000    64     0.2500

  Lengths:  16.000000  16.000000  16.000000
  Angles:   90.000000  90.000000  90.000000

Effective grid spacing dv^(1/3) = 0.2500

                     log10-error:    total        iterations:
           time      wfs    density  energy       fermi  poisson
iter:   1  14:27:36          +inf    -7.191791    2      1      
iter:   2  14:27:38         -1.96    -7.191054    1      1      
iter:   3  14:27:39         -2.28    -7.190903    1      1      
iter:   4  14:27:40         -2.59    -7.190873    2      1      
iter:   5  14:27:41         -3.12    -7.190872    1      1      
iter:   6  14:27:43         -3.31    -7.190872    1      1      
iter:   7  14:27:44         -4.06    -7.190872    1      1      

Converged after 7 iterations.

Dipole moment: (-0.053257, -0.086143, -0.033603) |e|*Ang

Energy contributions relative to reference atoms: (reference = -35189.668405)

Kinetic:        +30.130781
Potential:      -26.382031
External:        +0.000000
XC:             -10.978335
Entropy (-ST):   -0.000010
Local:           +0.038719
--------------------------
Free energy:     -7.190877
Extrapolated:    -7.190872

Fermi level: -2.41360

 Band  Eigenvalues  Occupancy
    0     -4.78420    2.00000
    1     -3.54721    2.00000
    2     -3.10530    2.00000
    3     -3.05618    1.99999
    4     -1.78083    0.00001
    5     -1.67717    0.00000
    6     -1.49699    0.00000
    7     -1.39817    0.00000
    8      1.38379    0.00000
    9      1.55707    0.00000

Gap: 1.275 eV
Transition (v -> c):
  (s=0, k=0, n=3, [0.00, 0.00, 0.00]) -> (s=0, k=0, n=4, [0.00, 0.00, 0.00])

Forces in eV/Ang:
  0 Na    0.04184    0.07132    0.01014
  1 Na    0.04857   -0.01543    0.04279
  2 Na   -0.01206   -0.04188    0.01243
[...]
  1. axis:    no    16.000000    0.000000    0.000000    64     0.2500
  2. axis:    no     0.000000   16.000000    0.000000    64     0.2500
  3. axis:    no     0.000000    0.000000   16.000000    64     0.2500

  Lengths:  16.000000  16.000000  16.000000
  Angles:   90.000000  90.000000  90.000000

Effective grid spacing dv^(1/3) = 0.2500

                     log10-error:    total        iterations:
           time      wfs    density  energy       fermi  poisson
iter:   1  14:58:08          +inf    -7.249635    1      1      
iter:   2  14:58:10         -2.22    -7.249465    1      1      
iter:   3  14:58:11         -2.46    -7.249396    1      1      
iter:   4  14:58:12         -2.91    -7.249390    1      1      
iter:   5  14:58:13         -3.29    -7.249389    1      1      
iter:   6  14:58:15         -3.50    -7.249389    1      1      
iter:   7  14:58:16         -4.22    -7.249389    1      1      

Converged after 7 iterations.

Dipole moment: (-0.052668, 0.022997, 0.010641) |e|*Ang

Energy contributions relative to reference atoms: (reference = -35189.668405)

Kinetic:        +30.466483
Potential:      -26.704658
External:        +0.000000
XC:             -11.050112
Entropy (-ST):   -0.000003
Local:           +0.038899
--------------------------
Free energy:     -7.249391
Extrapolated:    -7.249389

Fermi level: -2.39263

 Band  Eigenvalues  Occupancy
    0     -4.78569    2.00000
    1     -3.50403    2.00000
    2     -3.15706    2.00000
    3     -3.09578    2.00000
    4     -1.68632    0.00000
    5     -1.62965    0.00000
    6     -1.52408    0.00000
    7     -1.48345    0.00000
    8      1.32525    0.00000
    9      1.63349    0.00000

Gap: 1.409 eV
Transition (v -> c):
  (s=0, k=0, n=3, [0.00, 0.00, 0.00]) -> (s=0, k=0, n=4, [0.00, 0.00, 0.00])
                                                                                                                                                                                                                                                                                                                                                                                                                                                                                                                                                                                                                                                                                                                                                                                                                                                                                                                                                                                                                                                                                                                                                                                                                                                                                                                                                                                                                                                                                                                                                                                                                 --------------------------.  
 |        /                                      /   
 |       /                                      /    
 |      /                                      /     
 |     /                                      /      
 |    /                                      /       
 |   /                                      /        
 |  /                                      /         
 | /                                      /          
 |/                                      /           
 *--------------------------------------*            

Positions:
   0 Na     9.121432    7.726167    4.803975    ( 0.0000,  0.0000,  0.0000)
   1 Na    10.660632    9.640485    6.890576    ( 0.0000,  0.0000,  0.0000)
   2 Na     9.079257    5.773563    7.607165    ( 0.0000,  0.0000,  0.0000)
   3 Na     6.848505    7.864570    9.356174    ( 0.0000,  0.0000,  0.0000)
   4 Na     8.523863   10.755766    9.421284    ( 0.0000,  0.0000,  0.0000)
   5 Na     6.082815    6.979434    6.273911    ( 0.0000,  0.0000,  0.0000)
   6 Na     7.199043   10.123313    6.459660    ( 0.0000,  0.0000,  0.0000)
   7 Na    10.318374    7.824750    9.762014    ( 0.0000,  0.0000,  0.0000)

Unit cell:
           periodic     x           y           z      points  spacing
  1. axis:    no    16.000000    0.000000    0.000000    64     0.2500
  2. axis:    no     0.000000   16.000000    0.000000    64     0.2500
  3. axis:    no     0.000000    0.000000   16.000000    64     0.2500

  Lengths:  16.000000  16.000000  16.000000
  Angles:   90.000000  90.000000  90.000000

Effective grid spacing dv^(1/3) = 0.2500

                     log10-error:    total        iterations:
           time      wfs    density  energy       fermi  poisson
iter:   1  14:58:33          +inf    -7.250010    1      1      
iter:   2  14:58:34         -2.99    -7.250004    1      1      
iter:   3  14:58:35         -3.30    -7.250003    1      1      
iter:   4  14:58:37         -3.59    -7.250002    1      1      
iter:   5  14:58:38         -4.08    -7.250002    1      1      

Converged after 5 iterations.

Dipole moment: (-0.051552, 0.022337, 0.010079) |e|*Ang

Energy contributions relative to reference atoms: (reference = -35189.668405)

Kinetic:        +30.480985
Potential:      -26.715541
External:        +0.000000
XC:             -11.054579
Entropy (-ST):   -0.000003
Local:           +0.039133
--------------------------
Free energy:     -7.250004
Extrapolated:    -7.250002

Fermi level: -2.39134

 Band  Eigenvalues  Occupancy
    0     -4.78634    2.00000
    1     -3.50570    2.00000
    2     -3.15785    2.00000
    3     -3.09335    2.00000
    4     -1.68505    0.00000
    5     -1.62991    0.00000
    6     -1.52228    0.00000
    7     -1.48668    0.00000
    8      1.32135    0.00000
    9      1.63413    0.00000

Gap: 1.408 eV
Transition (v -> c):
  (s=0, k=0, n=3, [0.00, 0.00, 0.00]) -> (s=0, k=0, n=4, [0.00, 0.00, 0.00])

Forces in eV/Ang:
  0 Na    0.00102    0.00637   -0.02192
  1 Na   -0.01027   -0.01583    0.02243
  2 Na   -0.00373    0.02162   -0.01976
  3 Na   -0.00240   -0.01046   -0.00476
  4 Na    0.00608    0.02343   -0.02032
  5 Na   -0.00586   -0.02517    0.01560
  6 Na    0.01029    0.00934    0.00823
  7 Na    0.00245   -0.00984    0.02015

System changes: positions 

Initializing position-dependent things.

Density initialized from wave functions
           .--------------------------------------.  
          /|                                      |  
         / |                                      |  
        /  |                                      |  
       /   |                                      |  
      /    |                                      |  
     /     |                                      |  
    /      |                                      |  
   /       |                                      |  
  /        |                                      |  
 *         |                                      |  
 |         |                                      |  
 |         |                 Na                   |  
 |         |           Na      Na                 |  
 |         |                                      |  
 |         |                     Na               |  
 |         |             Na                       |  
 |         |               Na                     |  
 |         |        Na                            |  
 |         |                Na                    |  
 |         .--------------------------------------.  
 |        /                                      /   
 |       /                                      /    
 |      /                                      /     
 |     /                                      /      
 |    /                                      /       
 |   /                                      /        
 |  /                                      /         
 | /                                      /          
 |/                                      /           
 *--------------------------------------*            

Positions:
   0 Na     9.096172    7.755396    4.766772    ( 0.0000,  0.0000,  0.0000)
   1 Na    10.644466    9.598051    6.940589    ( 0.0000,  0.0000,  0.0000)
   2 Na     9.083729    5.822249    7.557969    ( 0.0000,  0.0000,  0.0000)
   3 Na     6.876307    7.851386    9.385310    ( 0.0000,  0.0000,  0.0000)
   4 Na     8.539373   10.787867    9.396061    ( 0.0000,  0.0000,  0.0000)
   5 Na     6.074891    6.935222    6.287298    ( 0.0000,  0.0000,  0.0000)
   6 Na     7.222349   10.123837    6.429837    ( 0.0000,  0.0000,  0.0000)
   7 Na    10.291038    7.815089    9.808619    ( 0.0000,  0.0000,  0.0000)

Unit cell:
           periodic     x           y           z      points  spacing
  1. axis:    no    16.000000    0.000000    0.000000    64     0.2500
  2. axis:    no     0.000000   16.000000    0.000000    64     0.2500
  3. axis:    no     0.000000    0.000000   16.000000    64     0.2500

  Lengths:  16.000000  16.000000  16.000000
  Angles:   90.000000  90.000000  90.000000

Effective grid spacing dv^(1/3) = 0.2500

                     log10-error:    total        iterations:
           time      wfs    density  energy       fermi  poisson
iter:   1  14:58:40          +inf    -7.255784    2      1      
iter:   2  14:58:41         -2.10    -7.255413    1      1      
iter:   3  14:58:43         -2.43    -7.255343    1      1      
iter:   4  14:58:44         -2.70    -7.255320    1      1      
iter:   5  14:58:45         -3.23    -7.255319    1      1      
iter:   6  14:58:46         -3.49    -7.255319    1      1      
iter:   7  14:58:48         -4.05    -7.255319    1      1      

Converged after 7 iterations.

Dipole moment: (-0.042245, 0.016329, 0.004836) |e|*Ang

Energy contributions relative to reference atoms: (reference = -35189.668405)

Kinetic:        +30.457998
Potential:      -26.689114
External:        +0.000000
XC:             -11.063377
Entropy (-ST):   -0.000004
Local:           +0.039175
--------------------------
Free energy:     -7.255321
Extrapolated:    -7.255319

Fermi level: -2.37912

 Band  Eigenvalues  Occupancy
    0     -4.78943    2.00000
    1     -3.51749    2.00000
    2     -3.16400    2.00000
    3     -3.06976    2.00000
    4     -1.67222    0.00000
    5     -1.63903    0.00000
    6     -1.51926    0.00000
    7     -1.50134    0.00000
    8      1.30579    0.00000
    9      1.63217    0.00000

Gap: 1.398 eV
Transition (v -> c):
  (s=0, k=0, n=3, [0.00, 0.00, 0.00]) -> (s=0, k=0, n=4, [0.00, 0.00, 0.00])

Forces in eV/Ang:
  0 Na    0.01000    0.00385   -0.02650
  1 Na    0.00510   -0.03583   -0.00173
  2 Na    0.02376    0.02121   -0.00600
  3 Na   -0.02327    0.00558   -0.03136
  4 Na   -0.01602    0.01081   -0.01534
  5 Na   -0.00427    0.01079    0.02877
  6 Na   -0.01387   -0.00275    0.02976
  7 Na    0.01652   -0.01569    0.02180

System changes: positions 

Initializing position-dependent things.

Density initialized from wave functions
           .--------------------------------------.  
          /|                                      |  
         / |                                      |  
        /  |                                      |  
       /   |                                      |  
      /    |                                      |  
     /     |                                      |  
    /      |                                      |  
   /       |                                      |  
  /        |                                      |  
 *         |                                      |  
 |         |                                      |  
 |         |                 Na                   |  
 |         |           Na      Na                 |  
 |         |                                      |  
 |         |                     Na               |  
 |         |             Na                       |  
 |         |               Na                     |  
 |         |        Na                            |  
 |         |                Na                    |  
 |         .--------------------------------------.  
 |        /                                      /   
 |       /                                      /    
 |      /                                      /     
 |     /                                      /      
 |    /                                      /       
 |   /                                      /        
 |  /                                      /         
 | /                                      /          
 |/                                      /           
 *--------------------------------------*            

Positions:
   0 Na     9.094874    7.760169    4.755303    ( 0.0000,  0.0000,  0.0000)
   1 Na    10.639925    9.587498    6.951596    ( 0.0000,  0.0000,  0.0000)
   2 Na     9.084249    5.834624    7.547480    ( 0.0000,  0.0000,  0.0000)
   3 Na     6.876930    7.847841    9.384804    ( 0.0000,  0.0000,  0.0000)
   4 Na     8.542004   10.798293    9.387242    ( 0.0000,  0.0000,  0.0000)
   5 Na     6.072248    6.924178    6.294181    ( 0.0000,  0.0000,  0.0000)
   6 Na     7.226410   10.126110    6.431339    ( 0.0000,  0.0000,  0.0000)
   7 Na    10.290346    7.810226    9.820046    ( 0.0000,  0.0000,  0.0000)

Unit cell:
           periodic     x           y           z      points  spacing
  1. axis:    no    16.000000    0.000000    0.000000    64     0.2500
  2. axis:    no     0.000000   16.000000    0.000000    64     0.2500
  3. axis:    no     0.000000    0.000000   16.000000    64     0.2500

  Lengths:  16.000000  16.000000  16.000000
  Angles:   90.000000  90.000000  90.000000

Effective grid spacing dv^(1/3) = 0.2500

                     log10-error:    total        iterations:
           time      wfs    density  energy       fermi  poisson
iter:   1  14:58:36          +inf    -7.256687    1      1      
iter:   2  14:58:37         -2.97    -7.256682    1      1      
iter:   3  14:58:38         -3.21    -7.256681    1      1      
iter:   4  14:58:40         -3.60    -7.256680    1      1      
iter:   5  14:58:41         -4.16    -7.256680    1      1      

Converged after 5 iterations.

Dipole moment: (-0.040363, 0.015301, 0.003987) |e|*Ang

Energy contributions relative to reference atoms: (reference = -35189.668405)

Kinetic:        +30.427146
Potential:      -26.663959
External:        +0.000000
XC:             -11.059116
Entropy (-ST):   -0.000004
Local:           +0.039250
--------------------------
Free energy:     -7.256682
Extrapolated:    -7.256680

Fermi level: -2.37773

 Band  Eigenvalues  Occupancy
    0     -4.78921    2.00000
    1     -3.51705    2.00000
    2     -3.16411    2.00000
    3     -3.06757    2.00000
    4     -1.67025    0.00000
    5     -1.63979    0.00000
    6     -1.52452    0.00000
    7     -1.49798    0.00000
    8      1.30985    0.00000
    9      1.63153    0.00000

Gap: 1.397 eV
Transition (v -> c):
  (s=0, k=0, n=3, [0.00, 0.00, 0.00]) -> (s=0, k=0, n=4, [0.00, 0.00, 0.00])

Forces in eV/Ang:
  0 Na    0.00740    0.00556   -0.02464
  1 Na    0.00777   -0.04046   -0.00752
  2 Na    0.03028    0.02161   -0.00234
  3 Na   -0.02121    0.01158   -0.02971
  4 Na   -0.01820    0.00419   -0.00878
  5 Na   -0.00293    0.01843    0.02450
  6 Na   -0.01916   -0.00925    0.02610
  7 Na    0.01366   -0.01437    0.02192

System changes: positions 

Initializing position-dependent things.

Density initialized from wave functions
           .--------------------------------------.  
          /|                                      |  
         / |                                      |  
        /  |                                      |  
       /   |                                      |  
      /    |                                      |  
     /     |                                      |  
    /      |                                      |  
   /       |                                      |  
  /        |                                      |  
 *         |                                      |  
 |         |                                      |  
 |         |                 Na                   |  
 |         |           Na      Na                 |  
 |         |                                      |  
 |         |                     Na               |  
 |         |             Na                       |  
 |         |               Na                     |  
 |         |        Na                            |  
 |         |                Na                    |  
 |         .--------------------------------------.  
 |        /                                      /   
 |       /                                      /    
 |      /                                      /     
 |     /                                      /      
 |    /                                      /       
 |   /                                      /        
 |  /                                      /         
 | /                                      /          
 |/                                      /           
 *--------------------------------------*            

Positions:
   0 Na     9.091602    7.774855    4.717576    ( 0.0000,  0.0000,  0.0000)
   1 Na    10.632172    9.546305    6.978768    ( 0.0000,  0.0000,  0.0000)
   2 Na     9.096773    5.873332    7.517794    ( 0.0000,  0.0000,  0.0000)
   3 Na     6.872546    7.839252    9.375062    ( 0.0000,  0.0000,  0.0000)
   4 Na     8.541459   10.827009    9.359584    ( 0.0000,  0.0000,  0.0000)
   5 Na     6.063621    6.901386    6.321970    ( 0.0000,  0.0000,  0.0000)
   6 Na     7.233534   10.131170    6.442228    ( 0.0000,  0.0000,  0.0000)
   7 Na    10.290938    7.794202    9.857662    ( 0.0000,  0.0000,  0.0000)

Unit cell:
           periodic     x           y           z      points  spacing
  1. axis:    no    16.000000    0.000000    0.000000    64     0.2500
  2. axis:    no     0.000000   16.000000    0.000000    64     0.2500
  3. axis:    no     0.000000    0.000000   16.000000    64     0.2500

  Lengths:  16.000000  16.000000  16.000000
  Angles:   90.000000  90.000000  90.000000

Effective grid spacing dv^(1/3) = 0.2500

                     log10-error:    total        iterations:
           time      wfs    density  energy       fermi  poisson
iter:   1  14:58:43          +inf    -7.261077    1      1      
iter:   2  14:58:44         -2.62    -7.261060    1      1      
iter:   3  14:58:46         -2.79    -7.261048    1      1      
iter:   4  14:58:47         -3.45    -7.261047    1      1      
iter:   5  14:58:48         -3.74    -7.261047    1      1      
iter:   6  14:58:49         -4.28    -7.261047    1      1      

Converged after 6 iterations.

Dipole moment: (-0.033253, 0.012285, 0.002010) |e|*Ang

Energy contributions relative to reference atoms: (reference = -35189.668405)

Kinetic:        +30.359080
Potential:      -26.609519
External:        +0.000000
XC:             -11.049671
Entropy (-ST):   -0.000003
Local:           +0.039065
--------------------------
Free energy:     -7.261049
Extrapolated:    -7.261047

Fermi level: -2.37708

 Band  Eigenvalues  Occupancy
    0     -4.78867    2.00000
    1     -3.51072    2.00000
    2     -3.16062    2.00000
    3     -3.07053    2.00000
    4     -1.66693    0.00000
    5     -1.63446    0.00000
    6     -1.53689    0.00000
    7     -1.49225    0.00000
    8      1.32928    0.00000
    9      1.63047    0.00000

Gap: 1.404 eV
Transition (v -> c):
  (s=0, k=0, n=3, [0.00, 0.00, 0.00]) -> (s=0, k=0, n=4, [0.00, 0.00, 0.00])
