7
Lattice="16.0 0.0 0.0 0.0 16.0 0.0 0.0 0.0 16.0" Properties=species:S:1:pos:R:3:forces:R:3 energy=-6.378018830976685 dipole="0.006303155230069512 -0.009375237712573373 -0.006868730976932897" free_energy=-6.41298836304353 pbc="F F F"
Na       6.27887278       6.66963895       6.37502014       0.01032483       0.01626581      -0.00760889 
Na       8.79292827       5.06829635       7.83670541       0.00109854       0.00220345       0.01092251 
Na       9.49923150       7.54537669       5.65866586       0.02831712      -0.00093721      -0.00539443 
Na       9.17074852      10.76840259       6.72708828      -0.01125272      -0.03429209      -0.01435278 
Na       6.13898536       9.72151150       7.78434402      -0.00116622       0.03232673       0.02990227 
Na       6.07834207       6.97490100       9.68961392      -0.02201363      -0.02933204       0.01341966 
Na       9.06428549       8.26900488       8.93682158      -0.00567579       0.01380830      -0.02318056 
