
  ___ ___ ___ _ _ _  
 |   |   |_  | | | | 
 | | | | | . | | | | 
 |__ |  _|___|_____|  19.8.1
 |___|_|             

User:   eliasel@hebbe25-1
Date:   Fri Feb  5 16:19:35 2021
Arch:   x86_64
Pid:    30041
Python: 3.7.2
gpaw:   /apps/Hebbe7/software/MPI/intel/2019.1.144-GCC-8.2.0-2.31.1/impi/2018.4.274/GPAW/19.8.1-Python-3.7.2/lib/python3.7/site-packages/gpaw
_gpaw:  /apps/Hebbe7/software/MPI/intel/2019.1.144-GCC-8.2.0-2.31.1/impi/2018.4.274/GPAW/19.8.1-Python-3.7.2/lib/python3.7/site-packages/
        _gpaw.cpython-37m-x86_64-linux-gnu.so
ase:    /apps/Hebbe7/software/MPI/intel/2019.1.144-GCC-8.2.0-2.31.1/impi/2018.4.274/ASE/3.18.0-Python-3.7.2/lib/python3.7/site-packages/ase (version 3.18.0)
numpy:  /apps/Hebbe7/software/MPI/intel/2019.1.144-GCC-8.2.0-2.31.1/impi/2018.4.274/SciPy-bundle/2019.03/lib/python3.7/site-packages/numpy (version 1.16.2)
scipy:  /apps/Hebbe7/software/MPI/intel/2019.1.144-GCC-8.2.0-2.31.1/impi/2018.4.274/SciPy-bundle/2019.03/lib/python3.7/site-packages/scipy (version 1.2.1)
libxc:  4.3.4
units:  Angstrom and eV
cores:  1

Input parameters:
  h: 0.25
  nbands: 10
  occupations: {name: fermi-dirac,
                width: 0.05}
  setups: {Na: 1}

System changes: positions, numbers, cell, pbc, initial_charges, initial_magmoms 

Initialize ...

Na-setup:
  name: Sodium
  id: fa5c50181d04022fed15b2593599c257
  Z: 11
  valence: 1
  core: 10
  charge: 0.0
  file: /apps/Hebbe7/software/Core/GPAW-setups/0.9.20000/Na.1.LDA.gz
  compensation charges: gauss, rc=0.43, lmax=2
  cutoffs: 2.36(filt), 3.60(core),
  valence states:
                energy  radius
    3s(1.00)    -2.819   1.349
    3p(0.00)    -0.774   1.349
    *s          24.392   1.349

  Using partial waves for Na as LCAO basis

Reference energy: -30790.959854

Spin-paired calculation

Occupation numbers:
  Fermi-Dirac: width=0.0500 eV

Convergence criteria:
  Maximum total energy change: 0.0005 eV / electron
  Maximum integral of absolute density change: 0.0001 electrons
  Maximum integral of absolute eigenstate change: 4e-08 eV^2
  Maximum number of iterations: 333

Symmetries present (total): 1

  ( 1  0  0)
  ( 0  1  0)
  ( 0  0  1)

1 k-point (Gamma)
1 k-point in the irreducible part of the Brillouin zone
       k-points in crystal coordinates                weights
   0:     0.00000000    0.00000000    0.00000000          1/1

Wave functions: Uniform real-space grid
  Kinetic energy operator: 6*3+1=19 point O(h^6) finite-difference Laplacian
  ScaLapack parameters: grid=1x1, blocksize=None
  Wavefunction extrapolation:
    Improved wavefunction reuse through dual PAW basis 

Eigensolver
   Davidson(niter=2, smin=None, normalize=True) 

Densities:
  Coarse grid: 64*64*64 grid
  Fine grid: 128*128*128 grid
  Total Charge: 0.000000 

Density mixing:
  Method: separate
  Backend: pulay
  Linear mixing parameter: 0.25
  Mixing with 3 old densities
  No damping of long wave oscillations 

Hamiltonian:
  XC and Coulomb potentials evaluated on a 128*128*128 grid
  Using the LDA Exchange-Correlation functional
  Interpolation: tri-quintic (5. degree polynomial)
  Poisson solver: FastPoissonSolver using
    6*3+1=19 point O(h^6) finite-difference Laplacian stencil;
    FFT axes: [];
    FST axes: [0, 1, 2].
 

Memory estimate:
  Process memory now: 251.16 MiB
  Calculator: 166.40 MiB
    Density: 83.08 MiB
      Arrays: 50.70 MiB
      Localized functions: 20.93 MiB
      Mixer: 11.45 MiB
    Hamiltonian: 34.67 MiB
      Arrays: 33.16 MiB
      XC: 0.00 MiB
      Poisson: 0.00 MiB
      vbar: 1.51 MiB
    Wavefunctions: 48.65 MiB
      Arrays psit_nG: 19.08 MiB
      Eigensolver: 28.62 MiB
      Projections: 0.00 MiB
      Projectors: 0.94 MiB

Total number of cores used: 1

Number of atoms: 7
Number of atomic orbitals: 28
Number of bands in calculation: 10
Bands to converge: occupied states only
Number of valence electrons: 7

... initialized

Initializing position-dependent things.

Density initialized from atomic densities
Creating initial wave functions:
  10 bands from LCAO basis set

           .--------------------------------------.  
          /|                                      |  
         / |                                      |  
        /  |                                      |  
       /   |                                      |  
      /    |                                      |  
     /     |                                      |  
    /      |                                      |  
   /       |                                      |  
  /        |                                      |  
 *         |                                      |  
 |         |                                      |  
 |         |                                      |  
 |         |                                      |  
 |         |           Na                         |  
 |         |           Na Na                      |  
 |         |                Naa                   |  
 |         |          Na Na                       |  
 |         |                                      |  
 |         |                                      |  
 |         .--------------------------------------.  
 |        /                                      /   
 |       /                                      /    
 |      /                                      /     
 |     /                                      /      
 |    /                                      /       
 |   /                                      /        
 |  /                                      /         
 | /                                      /          
 |/                                      /           
 *--------------------------------------*            

Positions:
   0 Na     7.000000    7.000000    7.000000    ( 0.0000,  0.0000,  0.0000)
   1 Na     8.000000    7.000000    7.000000    ( 0.0000,  0.0000,  0.0000)
   2 Na     9.000000    8.000000    7.000000    ( 0.0000,  0.0000,  0.0000)
   3 Na     9.000000    9.000000    7.000000    ( 0.0000,  0.0000,  0.0000)
   4 Na     7.000000    8.000000    8.000000    ( 0.0000,  0.0000,  0.0000)
   5 Na     7.000000    8.000000    9.000000    ( 0.0000,  0.0000,  0.0000)
   6 Na     8.000000    8.000000    8.000000    ( 0.0000,  0.0000,  0.0000)

Unit cell:
           periodic     x           y           z      points  spacing
  1. axis:    no    16.000000    0.000000    0.000000    64     0.2500
  2. axis:    no     0.000000   16.000000    0.000000    64     0.2500
  3. axis:    no     0.000000    0.000000   16.000000    64     0.2500

  Lengths:  16.000000  16.000000  16.000000
  Angles:   90.000000  90.000000  90.000000

Effective grid spacing dv^(1/3) = 0.2500

                     log10-error:    total        iterations:
           time      wfs    density  energy       fermi  poisson
iter:   1  16:19:41  +1.85   +inf    66.628182    2      1      
iter:   2  16:19:42  +0.90  -0.36    66.677497    5      1      
iter:   3  16:19:44  +0.33  -0.48    67.156826    35     1      
iter:   4  16:19:46  -0.11  -0.75    67.216479    4      1      
iter:   5  16:19:48  -0.41  -1.07    67.222255    3      1      
iter:   6  16:19:50  -1.11  -1.34    67.225761    4      1      
iter:   7  16:19:51  -1.36  -1.50    67.227394    3      1      
iter:   8  16:19:53  -1.84  -1.97    67.227213    3      1      
iter:   9  16:19:55  -2.41  -2.17    67.227435    3      1      
iter:  10  16:19:57  -2.85  -2.42    67.227431    3      1      
iter:  11  16:19:59  -3.40  -2.71    67.227437    3      1      
iter:  12  16:20:00  -3.90  -2.84    67.227442    3      1      
iter:  13  16:20:02  -4.32  -3.17    67.227446    2      1      
iter:  14  16:20:04  -4.71  -3.38    67.227443    2      1      
iter:  15  16:20:06  -5.10  -3.57    67.227446    2      1      
iter:  16  16:20:08  -5.47  -3.93    67.227444    2      1      
iter:  17  16:20:09  -5.83  -4.16    67.227445    2      1      
iter:  18  16:20:11  -6.16  -4.36    67.227444    2      1      
iter:  19  16:20:13  -6.52  -4.69    67.227445    2      1      
iter:  20  16:20:15  -6.87  -4.83    67.227444    2      1      
iter:  21  16:20:17  -7.22  -5.00    67.227444    2      1      
iter:  22  16:20:19  -7.57  -5.27    67.227444    2      1      

Converged after 22 iterations.

Dipole moment: (-0.015887, 0.222045, -0.035538) |e|*Ang

Energy contributions relative to reference atoms: (reference = -30790.959854)

Kinetic:       +169.090512
Potential:      -80.964571
External:        +0.000000
XC:             -39.996395
Entropy (-ST):   -0.111855
Local:          +19.153826
--------------------------
Free energy:    +67.171517
Extrapolated:   +67.227444

Fermi level: -4.11551

 Band  Eigenvalues  Occupancy
    0     -6.30542    2.00000
    1     -4.67779    1.99997
    2     -4.18003    1.56848
    3     -4.16169    1.43155
    4     -2.27547    0.00000
    5     -1.88841    0.00000
    6     -1.74674    0.00000
    7     -1.54494    0.00000
    8     -1.26968    0.00000
    9     -0.16247    0.00000

Gap: 1.886 eV
Transition (v -> c):
  (s=0, k=0, n=3, [0.00, 0.00, 0.00]) -> (s=0, k=0, n=4, [0.00, 0.00, 0.00])

Forces in eV/Ang:
  0 Na  -25.65102  -10.29096  -10.15844
  1 Na   17.48628  -16.02122   -9.05901
  2 Na   14.83377  -14.95951   -6.41252
  3 Na    4.94548   26.80842   -3.30401
  4 Na  -24.97446    7.57814  -11.50220
  5 Na   -7.19981    1.45248   30.75647
  6 Na   20.56319    5.43141    9.68327

System changes: positions 

Initializing position-dependent things.

Density initialized from wave functions
           .--------------------------------------.  
          /|                                      |  
         / |                                      |  
        /  |                                      |  
       /   |                                      |  
      /    |                                      |  
     /     |                                      |  
    /      |                                      |  
   /       |                                      |  
  /        |                                      |  
 *         |                                      |  
 |         |                                      |  
 |         |                                      |  
 |         |                                      |  
 |         |           Na                         |  
 |         |           Na Na                      |  
 |         |                Naa                   |  
 |         |          Na Na                       |  
 |         |                                      |  
 |         |                                      |  
 |         .--------------------------------------.  
 |        /                                      /   
 |       /                                      /    
 |      /                                      /     
 |     /                                      /      
 |    /                                      /       
 |   /                                      /        
 |  /                                      /         
 | /                                      /          
 |/                                      /           
 *--------------------------------------*            

Positions:
   0 Na     6.856467    6.942416    6.943157    ( 0.0000,  0.0000,  0.0000)
   1 Na     8.097846    6.910352    6.949309    ( 0.0000,  0.0000,  0.0000)
   2 Na     9.083004    7.916293    6.964118    ( 0.0000,  0.0000,  0.0000)
   3 Na     9.027673    9.150009    6.981512    ( 0.0000,  0.0000,  0.0000)
   4 Na     6.860253    8.042404    7.935638    ( 0.0000,  0.0000,  0.0000)
   5 Na     6.959713    8.008127    9.172101    ( 0.0000,  0.0000,  0.0000)
   6 Na     8.115063    8.030392    8.054184    ( 0.0000,  0.0000,  0.0000)

Unit cell:
           periodic     x           y           z      points  spacing
  1. axis:    no    16.000000    0.000000    0.000000    64     0.2500
  2. axis:    no     0.000000   16.000000    0.000000    64     0.2500
  3. axis:    no     0.000000    0.000000   16.000000    64     0.2500

  Lengths:  16.000000  16.000000  16.000000
  Angles:   90.000000  90.000000  90.000000

Effective grid spacing dv^(1/3) = 0.2500

                     log10-error:    total        iterations:
           time      wfs    density  energy       fermi  poisson
iter:   1  16:20:21  +1.48   +inf    43.291745    6      1      
iter:   2  16:20:23  +0.55  -0.50    43.591583    33     1      
iter:   3  16:20:24  +0.04  -0.73    43.691836    5      1      
iter:   4  16:20:26  +0.05  -0.89    43.731936    4      1      
iter:   5  16:20:28  -0.96  -1.37    43.733034    4      1      
iter:   6  16:20:30  -1.71  -1.50    43.733385    4      1      
iter:   7  16:20:32  -2.08  -1.71    43.733443    4      1      
iter:   8  16:20:34  -2.58  -2.04    43.733284    3      1      
iter:   9  16:20:35  -3.00  -2.29    43.733266    3      1      
iter:  10  16:20:37  -3.41  -2.61    43.733232    3      1      
iter:  11  16:20:39  -3.82  -2.86    43.733239    2      1      
iter:  12  16:20:41  -4.19  -3.11    43.733233    2      1      
iter:  13  16:20:43  -4.58  -3.47    43.733236    2      1      
iter:  14  16:20:45  -4.96  -3.65    43.733235    2      1      
iter:  15  16:20:46  -5.33  -3.82    43.733236    2      1      
iter:  16  16:20:48  -5.69  -4.14    43.733235    2      1      
iter:  17  16:20:50  -6.04  -4.42    43.733235    2      1      
iter:  18  16:20:52  -6.37  -4.66    43.733235    2      1      
iter:  19  16:20:54  -6.71  -4.92    43.733235    2      1      
iter:  20  16:20:55  -7.04  -5.05    43.733235    2      1      
iter:  21  16:20:57  -7.37  -5.28    43.733235    2      1      
iter:  22  16:20:59  -7.70  -5.56    43.733235    1      1      

Converged after 22 iterations.

Dipole moment: (-0.066296, 0.211637, -0.056463) |e|*Ang

Energy contributions relative to reference atoms: (reference = -30790.959854)

Kinetic:       +149.784079
Potential:      -81.377772
External:        +0.000000
XC:             -34.984497
Entropy (-ST):   -0.111761
Local:          +10.367306
--------------------------
Free energy:    +43.677355
Extrapolated:   +43.733235

Fermi level: -3.97475

 Band  Eigenvalues  Occupancy
    0     -6.10554    2.00000
    1     -4.44772    1.99984
    2     -4.04045    1.57640
    3     -4.01998    1.42376
    4     -2.29675    0.00000
    5     -1.92972    0.00000
    6     -1.77511    0.00000
    7     -1.52680    0.00000
    8     -1.28572    0.00000
    9     -0.34803    0.00000

Gap: 1.723 eV
Transition (v -> c):
  (s=0, k=0, n=3, [0.00, 0.00, 0.00]) -> (s=0, k=0, n=4, [0.00, 0.00, 0.00])

Forces in eV/Ang:
  0 Na  -16.15038   -7.77195   -7.77396
  1 Na    8.51102  -13.97687   -6.13797
  2 Na   14.14410   -7.31154   -6.12698
  3 Na    3.00855   17.83549   -2.69546
  4 Na  -16.59081    7.24080   -6.79386
  5 Na   -3.54422    0.40059   19.15438
  6 Na   10.62831    3.58704   10.37672

System changes: positions 

Initializing position-dependent things.

Density initialized from wave functions
           .--------------------------------------.  
          /|                                      |  
         / |                                      |  
        /  |                                      |  
       /   |                                      |  
      /    |                                      |  
     /     |                                      |  
    /      |                                      |  
   /       |                                      |  
  /        |                                      |  
 *         |                                      |  
 |         |                                      |  
 |         |                                      |  
 |         |           Na                         |  
 |         |                                      |  
 |         |           Na Na Na                   |  
 |         |                Na                    |  
 |         |          Na Na                       |  
 |         |                                      |  
 |         |                                      |  
 |         .--------------------------------------.  
 |        /                                      /   
 |       /                                      /    
 |      /                                      /     
 |     /                                      /      
 |    /                                      /       
 |   /                                      /        
 |  /                                      /         
 | /                                      /          
 |/                                      /           
 *--------------------------------------*            

Positions:
   0 Na     6.744376    6.891479    6.892406    ( 0.0000,  0.0000,  0.0000)
   1 Na     8.162725    6.822387    6.907718    ( 0.0000,  0.0000,  0.0000)
   2 Na     9.170003    7.860649    6.926451    ( 0.0000,  0.0000,  0.0000)
   3 Na     9.048798    9.271573    6.964234    ( 0.0000,  0.0000,  0.0000)
   4 Na     6.747119    8.086919    7.887444    ( 0.0000,  0.0000,  0.0000)
   5 Na     6.932815    8.012102    9.305531    ( 0.0000,  0.0000,  0.0000)
   6 Na     8.194219    8.054899    8.116254    ( 0.0000,  0.0000,  0.0000)

Unit cell:
           periodic     x           y           z      points  spacing
  1. axis:    no    16.000000    0.000000    0.000000    64     0.2500
  2. axis:    no     0.000000   16.000000    0.000000    64     0.2500
  3. axis:    no     0.000000    0.000000   16.000000    64     0.2500

  Lengths:  16.000000  16.000000  16.000000
  Angles:   90.000000  90.000000  90.000000

Effective grid spacing dv^(1/3) = 0.2500

                     log10-error:    total        iterations:
           time      wfs    density  energy       fermi  poisson
iter:   1  16:21:01  +1.23   +inf    30.408554    4      1      
iter:   2  16:21:03  +0.32  -0.69    30.449529    5      1      
iter:   3  16:21:05  -0.27  -0.91    30.462915    3      1      
iter:   4  16:21:07  -0.49  -1.05    30.474663    4      1      
iter:   5  16:21:09  -1.03  -1.44    30.472054    4      1      
iter:   6  16:21:10  -1.77  -1.60    30.471493    4      1      
iter:   7  16:21:12  -2.38  -1.88    30.471345    4      1      
iter:   8  16:21:14  -2.94  -2.35    30.471253    3      1      
iter:   9  16:21:16  -3.43  -2.56    30.471251    3      1      
iter:  10  16:21:18  -3.80  -2.77    30.471237    3      1      
iter:  11  16:21:19  -4.24  -3.15    30.471240    2      1      
iter:  12  16:21:21  -4.66  -3.32    30.471239    2      1      
iter:  13  16:21:23  -5.04  -3.57    30.471242    2      1      
iter:  14  16:21:25  -5.46  -3.88    30.471241    2      1      
iter:  15  16:21:27  -5.87  -4.06    30.471241    2      1      
iter:  16  16:21:28  -6.25  -4.33    30.471241    1      1      
iter:  17  16:21:30  -6.65  -4.79    30.471241    2      1      
iter:  18  16:21:32  -7.02  -4.93    30.471241    2      1      
iter:  19  16:21:34  -7.39  -5.09    30.471241    2      1      
iter:  20  16:21:36  -7.77  -5.30    30.471241    2      1      

Converged after 20 iterations.

Dipole moment: (-0.112660, 0.191922, -0.068708) |e|*Ang

Energy contributions relative to reference atoms: (reference = -30790.959854)

Kinetic:       +140.947989
Potential:      -84.288171
External:        +0.000000
XC:             -31.999547
Entropy (-ST):   -0.112469
Local:           +5.867204
--------------------------
Free energy:    +30.415006
Extrapolated:   +30.471241

Fermi level: -3.85337

 Band  Eigenvalues  Occupancy
    0     -6.06843    2.00000
    1     -4.20923    1.99838
    2     -3.91751    1.56589
    3     -3.90006    1.43573
    4     -2.30551    0.00000
    5     -1.93441    0.00000
    6     -1.77301    0.00000
    7     -1.50456    0.00000
    8     -1.26725    0.00000
    9     -0.47074    0.00000

Gap: 1.595 eV
Transition (v -> c):
  (s=0, k=0, n=3, [0.00, 0.00, 0.00]) -> (s=0, k=0, n=4, [0.00, 0.00, 0.00])

Forces in eV/Ang:
  0 Na  -11.09821   -6.28226   -6.20846
  1 Na    4.39138  -11.96493   -4.43981
  2 Na   12.23452   -3.60660   -5.24405
  3 Na    1.85487   12.61247   -2.25303
  4 Na  -11.58051    6.71281   -3.95454
  5 Na   -2.35095   -0.06610   12.98300
  6 Na    6.55234    2.58713    9.12554

System changes: positions 

Initializing position-dependent things.

Density initialized from wave functions
           .--------------------------------------.  
          /|                                      |  
         / |                                      |  
        /  |                                      |  
       /   |                                      |  
      /    |                                      |  
     /     |                                      |  
    /      |                                      |  
   /       |                                      |  
  /        |                                      |  
 *         |                                      |  
 |         |                                      |  
 |         |                                      |  
 |         |           Na                         |  
 |         |                                      |  
 |         |          Na  Na Na                   |  
 |         |                                      |  
 |         |         Na  Na Na                    |  
 |         |                                      |  
 |         |                                      |  
 |         .--------------------------------------.  
 |        /                                      /   
 |       /                                      /    
 |      /                                      /     
 |     /                                      /      
 |    /                                      /       
 |   /                                      /        
 |  /                                      /         
 | /                                      /          
 |/                                      /           
 *--------------------------------------*            

Positions:
   0 Na     6.642483    6.838624    6.839907    ( 0.0000,  0.0000,  0.0000)
   1 Na     8.210676    6.724847    6.868137    ( 0.0000,  0.0000,  0.0000)
   2 Na     9.268984    7.820220    6.883829    ( 0.0000,  0.0000,  0.0000)
   3 Na     9.066853    9.385384    6.945624    ( 0.0000,  0.0000,  0.0000)
   4 Na     6.641930    8.139624    7.847663    ( 0.0000,  0.0000,  0.0000)
   5 Na     6.910499    8.013259    9.425635    ( 0.0000,  0.0000,  0.0000)
   6 Na     8.258665    8.078026    8.189291    ( 0.0000,  0.0000,  0.0000)

Unit cell:
           periodic     x           y           z      points  spacing
  1. axis:    no    16.000000    0.000000    0.000000    64     0.2500
  2. axis:    no     0.000000   16.000000    0.000000    64     0.2500
  3. axis:    no     0.000000    0.000000   16.000000    64     0.2500

  Lengths:  16.000000  16.000000  16.000000
  Angles:   90.000000  90.000000  90.000000

Effective grid spacing dv^(1/3) = 0.2500

                     log10-error:    total        iterations:
           time      wfs    density  energy       fermi  poisson
iter:   1  16:21:38  +1.11   +inf    21.018135    5      1      
iter:   2  16:21:40  +0.22  -0.79    21.003079    4      1      
iter:   3  16:21:41  -0.40  -0.99    20.997692    4      1      
iter:   4  16:21:43  -0.87  -1.16    20.995118    4      1      
iter:   5  16:21:45  -1.29  -1.35    20.992795    4      1      
iter:   6  16:21:47  -1.66  -1.57    20.991351    4      1      
iter:   7  16:21:49  -2.34  -2.07    20.991174    4      1      
iter:   8  16:21:51  -2.87  -2.23    20.991207    3      1      
iter:   9  16:21:53  -3.20  -2.44    20.991220    3      1      
iter:  10  16:21:54  -3.71  -2.67    20.991227    2      1      
iter:  11  16:21:56  -4.16  -2.81    20.991214    3      1      
iter:  12  16:21:58  -4.53  -3.14    20.991222    2      1      
iter:  13  16:22:00  -5.02  -3.46    20.991220    2      1      
iter:  14  16:22:02  -5.43  -3.63    20.991221    2      1      
iter:  15  16:22:04  -5.83  -3.92    20.991221    2      1      
iter:  16  16:22:05  -6.27  -4.20    20.991221    2      1      
iter:  17  16:22:07  -6.70  -4.39    20.991221    2      1      
iter:  18  16:22:09  -7.12  -4.62    20.991221    2      1      
iter:  19  16:22:11  -7.55  -4.83    20.991221    2      1      

Converged after 19 iterations.

Dipole moment: (-0.144892, 0.155757, -0.081056) |e|*Ang

Energy contributions relative to reference atoms: (reference = -30790.959854)

Kinetic:       +133.112363
Potential:      -85.805614
External:        +0.000000
XC:             -29.470085
Entropy (-ST):   -0.112533
Local:           +3.210825
--------------------------
Free energy:    +20.934954
Extrapolated:   +20.991221

Fermi level: -3.72686

 Band  Eigenvalues  Occupancy
    0     -6.09793    2.00000
    1     -4.03440    1.99575
    2     -3.79578    1.59745
    3     -3.77004    1.40680
    4     -2.32786    0.00000
    5     -1.92146    0.00000
    6     -1.76123    0.00000
    7     -1.49551    0.00000
    8     -1.25555    0.00000
    9     -0.61527    0.00000

Gap: 1.442 eV
Transition (v -> c):
  (s=0, k=0, n=3, [0.00, 0.00, 0.00]) -> (s=0, k=0, n=4, [0.00, 0.00, 0.00])

Forces in eV/Ang:
  0 Na   -7.92400   -4.97729   -4.81946
  1 Na    2.44757   -9.79610   -3.18345
  2 Na    9.89070   -1.83426   -4.24306
  3 Na    1.04372    9.18923   -1.87036
  4 Na   -8.24693    5.94236   -2.52349
  5 Na   -1.83859   -0.33703    9.22043
  6 Na    4.62542    1.81187    7.42162

System changes: positions 

Initializing position-dependent things.

Density initialized from wave functions
           .--------------------------------------.  
          /|                                      |  
         / |                                      |  
        /  |                                      |  
       /   |                                      |  
      /    |                                      |  
     /     |                                      |  
    /      |                                      |  
   /       |                                      |  
  /        |                                      |  
 *         |                                      |  
 |         |                                      |  
 |         |                                      |  
 |         |           Na                         |  
 |         |                                      |  
 |         |          Na  Na Na                   |  
 |         |                                      |  
 |         |         Na  Na  Na                   |  
 |         |                                      |  
 |         |                                      |  
 |         .--------------------------------------.  
 |        /                                      /   
 |       /                                      /    
 |      /                                      /     
 |     /                                      /      
 |    /                                      /       
 |   /                                      /        
 |  /                                      /         
 | /                                      /          
 |/                                      /           
 *--------------------------------------*            

Positions:
   0 Na     6.549841    6.784444    6.786736    ( 0.0000,  0.0000,  0.0000)
   1 Na     8.244866    6.620388    6.831095    ( 0.0000,  0.0000,  0.0000)
   2 Na     9.375329    7.792767    6.838191    ( 0.0000,  0.0000,  0.0000)
   3 Na     9.081228    9.491410    6.925831    ( 0.0000,  0.0000,  0.0000)
   4 Na     6.545317    8.199960    7.815539    ( 0.0000,  0.0000,  0.0000)
   5 Na     6.890301    8.011572    9.533884    ( 0.0000,  0.0000,  0.0000)
   6 Na     8.313219    8.099407    8.268861    ( 0.0000,  0.0000,  0.0000)

Unit cell:
           periodic     x           y           z      points  spacing
  1. axis:    no    16.000000    0.000000    0.000000    64     0.2500
  2. axis:    no     0.000000   16.000000    0.000000    64     0.2500
  3. axis:    no     0.000000    0.000000   16.000000    64     0.2500

  Lengths:  16.000000  16.000000  16.000000
  Angles:   90.000000  90.000000  90.000000

Effective grid spacing dv^(1/3) = 0.2500

                     log10-error:    total        iterations:
           time      wfs    density  energy       fermi  poisson
iter:   1  16:22:13  +0.99   +inf    14.049531    29     1      
iter:   2  16:22:15  +0.07  -0.84    14.042987    4      1      
iter:   3  16:22:17  -0.55  -1.08    14.032243    4      1      
iter:   4  16:22:19  -1.09  -1.26    14.029352    4      1      
iter:   5  16:22:21  -1.50  -1.36    14.025973    4      1      
iter:   6  16:22:23  -1.85  -1.69    14.025265    4      1      
iter:   7  16:22:24  -2.42  -2.24    14.025144    3      1      
iter:   8  16:22:26  -2.88  -2.34    14.025162    2      1      
iter:   9  16:22:28  -3.30  -2.72    14.025124    3      1      
iter:  10  16:22:30  -3.72  -3.05    14.025139    2      1      
iter:  11  16:22:32  -4.14  -3.21    14.025126    2      1      
iter:  12  16:22:34  -4.51  -3.37    14.025130    2      1      
iter:  13  16:22:36  -4.91  -3.66    14.025125    2      1      
iter:  14  16:22:37  -5.26  -3.81    14.025125    2      1      
iter:  15  16:22:39  -5.64  -4.07    14.025124    2      1      
iter:  16  16:22:41  -6.03  -4.33    14.025124    2      1      
iter:  17  16:22:43  -6.41  -4.58    14.025123    2      1      
iter:  18  16:22:45  -6.79  -4.86    14.025124    2      1      
iter:  19  16:22:47  -7.16  -4.98    14.025124    2      1      
iter:  20  16:22:49  -7.53  -5.09    14.025124    2      1      

Converged after 20 iterations.

Dipole moment: (-0.154434, 0.116165, -0.091672) |e|*Ang

Energy contributions relative to reference atoms: (reference = -30790.959854)

Kinetic:       +123.487633
Potential:      -84.033369
External:        +0.000000
XC:             -27.071503
Entropy (-ST):   -0.105632
Local:           +1.695179
--------------------------
Free energy:    +13.972308
Extrapolated:   +14.025124

Fermi level: -3.59340

 Band  Eigenvalues  Occupancy
    0     -6.11956    2.00000
    1     -3.93694    1.99793
    2     -3.68735    1.73500
    3     -3.62077    1.26708
    4     -2.34388    0.00000
    5     -1.89326    0.00000
    6     -1.74310    0.00000
    7     -1.49621    0.00000
    8     -1.25223    0.00000
    9     -0.74577    0.00000

Gap: 1.277 eV
Transition (v -> c):
  (s=0, k=0, n=3, [0.00, 0.00, 0.00]) -> (s=0, k=0, n=4, [0.00, 0.00, 0.00])

Forces in eV/Ang:
  0 Na   -5.83004   -3.82758   -3.62858
  1 Na    1.59712   -7.69152   -2.23304
  2 Na    7.68274   -1.11635   -3.37866
  3 Na    0.49612    6.89743   -1.52564
  4 Na   -5.93943    5.02441   -1.89606
  5 Na   -1.58896   -0.47476    6.86706
  6 Na    3.57932    1.18997    5.78944

System changes: positions 

Initializing position-dependent things.

Density initialized from wave functions
           .--------------------------------------.  
          /|                                      |  
         / |                                      |  
        /  |                                      |  
       /   |                                      |  
      /    |                                      |  
     /     |                                      |  
    /      |                                      |  
   /       |                                      |  
  /        |                                      |  
 *         |                                      |  
 |         |                                      |  
 |         |                                      |  
 |         |           Na                         |  
 |         |              Na                      |  
 |         |          Na     Na                   |  
 |         |                                      |  
 |         |         Na  Na  Na                   |  
 |         |                                      |  
 |         |                                      |  
 |         .--------------------------------------.  
 |        /                                      /   
 |       /                                      /    
 |      /                                      /     
 |     /                                      /      
 |    /                                      /       
 |   /                                      /        
 |  /                                      /         
 | /                                      /          
 |/                                      /           
 *--------------------------------------*            

Positions:
   0 Na     6.465005    6.730206    6.734444    ( 0.0000,  0.0000,  0.0000)
   1 Na     8.269642    6.512746    6.797271    ( 0.0000,  0.0000,  0.0000)
   2 Na     9.484053    7.774514    6.791218    ( 0.0000,  0.0000,  0.0000)
   3 Na     9.091432    9.590558    6.905119    ( 0.0000,  0.0000,  0.0000)
   4 Na     6.457276    8.266523    7.788532    ( 0.0000,  0.0000,  0.0000)
   5 Na     6.870037    8.007040    9.632866    ( 0.0000,  0.0000,  0.0000)
   6 Na     8.362631    8.118347    8.350689    ( 0.0000,  0.0000,  0.0000)

Unit cell:
           periodic     x           y           z      points  spacing
  1. axis:    no    16.000000    0.000000    0.000000    64     0.2500
  2. axis:    no     0.000000   16.000000    0.000000    64     0.2500
  3. axis:    no     0.000000    0.000000   16.000000    64     0.2500

  Lengths:  16.000000  16.000000  16.000000
  Angles:   90.000000  90.000000  90.000000

Effective grid spacing dv^(1/3) = 0.2500

                     log10-error:    total        iterations:
           time      wfs    density  energy       fermi  poisson
iter:   1  16:22:51  +0.91   +inf     8.853024    34     1      
iter:   2  16:22:53  -0.06  -0.86     8.871028    4      1      
iter:   3  16:22:55  -0.68  -1.10     8.872311    4      1      
iter:   4  16:22:56  -1.17  -1.30     8.870769    4      1      
iter:   5  16:22:58  -1.50  -1.57     8.868713    4      1      
iter:   6  16:23:00  -2.03  -2.02     8.868228    3      1      
iter:   7  16:23:02  -2.58  -2.23     8.868018    3      1      
iter:   8  16:23:04  -2.99  -2.54     8.868004    3      1      
iter:   9  16:23:06  -3.39  -2.80     8.867976    2      1      
iter:  10  16:23:08  -3.78  -3.04     8.867993    2      1      
iter:  11  16:23:09  -4.18  -3.35     8.867989    2      1      
iter:  12  16:23:11  -4.57  -3.61     8.867992    2      1      
iter:  13  16:23:13  -4.94  -3.87     8.867988    2      1      
iter:  14  16:23:15  -5.30  -4.15     8.867987    2      1      
iter:  15  16:23:17  -5.67  -4.37     8.867986    2      1      
iter:  16  16:23:19  -6.05  -4.56     8.867986    2      1      
iter:  17  16:23:21  -6.43  -4.75     8.867986    2      1      
iter:  18  16:23:22  -6.80  -5.01     8.867986    1      1      
iter:  19  16:23:24  -7.17  -5.16     8.867986    2      1      
iter:  20  16:23:26  -7.53  -5.35     8.867986    2      1      

Converged after 20 iterations.

Dipole moment: (-0.144828, 0.089676, -0.095306) |e|*Ang

Energy contributions relative to reference atoms: (reference = -30790.959854)

Kinetic:       +112.094216
Potential:      -79.283486
External:        +0.000000
XC:             -24.762239
Entropy (-ST):   -0.091957
Local:           +0.865474
--------------------------
Free energy:     +8.822007
Extrapolated:    +8.867986

Fermi level: -3.45907

 Band  Eigenvalues  Occupancy
    0     -6.08583    2.00000
    1     -3.87359    1.99950
    2     -3.59510    1.87646
    3     -3.47154    1.12404
    4     -2.32961    0.00000
    5     -1.86026    0.00000
    6     -1.72198    0.00000
    7     -1.49905    0.00000
    8     -1.25212    0.00000
    9     -0.83955    0.00000

Gap: 1.142 eV
Transition (v -> c):
  (s=0, k=0, n=3, [0.00, 0.00, 0.00]) -> (s=0, k=0, n=4, [0.00, 0.00, 0.00])

Forces in eV/Ang:
  0 Na   -4.39693   -2.89427   -2.68730
  1 Na    1.19666   -5.88612   -1.51480
  2 Na    5.90004   -0.84182   -2.70989
  3 Na    0.13367    5.29457   -1.21588
  4 Na   -4.30644    4.13298   -1.59111
  5 Na   -1.44356   -0.53264    5.31451
  6 Na    2.91641    0.72534    4.40785

System changes: positions 

Initializing position-dependent things.

Density initialized from wave functions
           .--------------------------------------.  
          /|                                      |  
         / |                                      |  
        /  |                                      |  
       /   |                                      |  
      /    |                                      |  
     /     |                                      |  
    /      |                                      |  
   /       |                                      |  
  /        |                                      |  
 *         |                                      |  
 |         |                                      |  
 |         |                                      |  
 |         |           Na                         |  
 |         |               Na                     |  
 |         |          Na     Na                   |  
 |         |                                      |  
 |         |         Na      Na                   |  
 |         |             Na                       |  
 |         |                                      |  
 |         .--------------------------------------.  
 |        /                                      /   
 |       /                                      /    
 |      /                                      /     
 |     /                                      /      
 |    /                                      /       
 |   /                                      /        
 |  /                                      /         
 | /                                      /          
 |/                                      /           
 *--------------------------------------*            

Positions:
   0 Na     6.387608    6.678239    6.685382    ( 0.0000,  0.0000,  0.0000)
   1 Na     8.289059    6.407609    6.767880    ( 0.0000,  0.0000,  0.0000)
   2 Na     9.589326    7.761427    6.744704    ( 0.0000,  0.0000,  0.0000)
   3 Na     9.097056    9.682746    6.884229    ( 0.0000,  0.0000,  0.0000)
   4 Na     6.378736    8.336270    7.763832    ( 0.0000,  0.0000,  0.0000)
   5 Na     6.848298    7.999827    9.724173    ( 0.0000,  0.0000,  0.0000)
   6 Na     8.409958    8.133813    8.429920    ( 0.0000,  0.0000,  0.0000)

Unit cell:
           periodic     x           y           z      points  spacing
  1. axis:    no    16.000000    0.000000    0.000000    64     0.2500
  2. axis:    no     0.000000   16.000000    0.000000    64     0.2500
  3. axis:    no     0.000000    0.000000   16.000000    64     0.2500

  Lengths:  16.000000  16.000000  16.000000
  Angles:   90.000000  90.000000  90.000000

Effective grid spacing dv^(1/3) = 0.2500

                     log10-error:    total        iterations:
           time      wfs    density  energy       fermi  poisson
iter:   1  16:23:28  +0.81   +inf     5.034798    33     1      
iter:   2  16:23:30  -0.20  -0.87     5.079261    4      1      
iter:   3  16:23:32  -0.74  -1.10     5.093384    4      1      
iter:   4  16:23:34  -1.21  -1.38     5.092194    3      1      
iter:   5  16:23:36  -1.53  -1.57     5.091153    3      1      
iter:   6  16:23:38  -1.99  -2.14     5.090736    3      1      
iter:   7  16:23:39  -2.50  -2.28     5.090577    2      1      
iter:   8  16:23:41  -3.02  -2.47     5.090531    3      1      
iter:   9  16:23:43  -3.43  -2.87     5.090512    2      1      
iter:  10  16:23:45  -3.82  -3.12     5.090512    2      1      
iter:  11  16:23:47  -4.21  -3.40     5.090514    2      1      
iter:  12  16:23:49  -4.59  -3.53     5.090518    2      1      
iter:  13  16:23:50  -4.99  -3.75     5.090516    2      1      
iter:  14  16:23:52  -5.37  -4.15     5.090516    2      1      
iter:  15  16:23:54  -5.74  -4.42     5.090515    2      1      
iter:  16  16:23:56  -6.12  -4.79     5.090515    2      1      
iter:  17  16:23:58  -6.50  -4.92     5.090515    2      1      
iter:  18  16:24:00  -6.88  -4.98     5.090515    2      1      
iter:  19  16:24:01  -7.25  -5.13     5.090515    2      1      
iter:  20  16:24:03  -7.62  -5.19     5.090515    2      1      

Converged after 20 iterations.

Dipole moment: (-0.128991, 0.079653, -0.088414) |e|*Ang

Energy contributions relative to reference atoms: (reference = -30790.959854)

Kinetic:       +100.112772
Potential:      -72.812532
External:        +0.000000
XC:             -22.607372
Entropy (-ST):   -0.078624
Local:           +0.436959
--------------------------
Free energy:     +5.051203
Extrapolated:    +5.090515

Fermi level: -3.32771

 Band  Eigenvalues  Occupancy
    0     -5.99443    2.00000
    1     -3.82106    1.99990
    2     -3.52551    1.96244
    3     -3.33147    1.03766
    4     -2.28484    0.00000
    5     -1.83054    0.00000
    6     -1.70270    0.00000
    7     -1.49877    0.00000
    8     -1.25407    0.00000
    9     -0.90130    0.00000

Gap: 1.047 eV
Transition (v -> c):
  (s=0, k=0, n=3, [0.00, 0.00, 0.00]) -> (s=0, k=0, n=4, [0.00, 0.00, 0.00])

Forces in eV/Ang:
  0 Na   -3.41295   -2.20141   -2.00312
  1 Na    0.96444   -4.49803   -0.98636
  2 Na    4.59063   -0.69136   -2.20282
  3 Na   -0.09003    4.14010   -0.95707
  4 Na   -3.15303    3.39011   -1.37326
  5 Na   -1.33943   -0.54707    4.21671
  6 Na    2.44075    0.40738    3.30728

System changes: positions 

Initializing position-dependent things.

Density initialized from wave functions
           .--------------------------------------.  
          /|                                      |  
         / |                                      |  
        /  |                                      |  
       /   |                                      |  
      /    |                                      |  
     /     |                                      |  
    /      |                                      |  
   /       |                                      |  
  /        |                                      |  
 *         |                                      |  
 |         |                                      |  
 |         |                                      |  
 |         |           Na                         |  
 |         |               Na                     |  
 |         |          Na     Na                   |  
 |         |                                      |  
 |         |                 Na                   |  
 |         |         Na  Na                       |  
 |         |                                      |  
 |         .--------------------------------------.  
 |        /                                      /   
 |       /                                      /    
 |      /                                      /     
 |     /                                      /      
 |    /                                      /       
 |   /                                      /        
 |  /                                      /         
 | /                                      /          
 |/                                      /           
 *--------------------------------------*            

Positions:
   0 Na     6.318871    6.631621    6.642314    ( 0.0000,  0.0000,  0.0000)
   1 Na     8.305819    6.312194    6.744306    ( 0.0000,  0.0000,  0.0000)
   2 Na     9.684720    7.750482    6.701038    ( 0.0000,  0.0000,  0.0000)
   3 Na     9.098311    9.765855    6.864540    ( 0.0000,  0.0000,  0.0000)
   4 Na     6.311682    8.404107    7.739978    ( 0.0000,  0.0000,  0.0000)
   5 Na     6.825130    7.990658    9.806949    ( 0.0000,  0.0000,  0.0000)
   6 Na     8.455480    8.145024    8.500971    ( 0.0000,  0.0000,  0.0000)

Unit cell:
           periodic     x           y           z      points  spacing
  1. axis:    no    16.000000    0.000000    0.000000    64     0.2500
  2. axis:    no     0.000000   16.000000    0.000000    64     0.2500
  3. axis:    no     0.000000    0.000000   16.000000    64     0.2500

  Lengths:  16.000000  16.000000  16.000000
  Angles:   90.000000  90.000000  90.000000

Effective grid spacing dv^(1/3) = 0.2500

                     log10-error:    total        iterations:
           time      wfs    density  energy       fermi  poisson
iter:   1  16:24:05  +0.68   +inf     2.329356    33     1      
iter:   2  16:24:07  -0.35  -0.92     2.381546    4      1      
iter:   3  16:24:09  -0.76  -1.12     2.403220    4      1      
iter:   4  16:24:11  -1.34  -1.48     2.401886    3      1      
iter:   5  16:24:13  -1.75  -1.63     2.401130    3      1      
iter:   6  16:24:15  -2.07  -2.17     2.400876    3      1      
iter:   7  16:24:17  -2.46  -2.35     2.400756    2      1      
iter:   8  16:24:18  -3.08  -2.52     2.400751    3      1      
iter:   9  16:24:20  -3.51  -2.94     2.400742    2      1      
iter:  10  16:24:22  -3.87  -3.18     2.400738    2      1      
iter:  11  16:24:24  -4.28  -3.60     2.400738    2      1      
iter:  12  16:24:26  -4.73  -3.73     2.400740    2      1      
iter:  13  16:24:28  -5.10  -4.05     2.400739    2      1      
iter:  14  16:24:29  -5.50  -4.12     2.400739    2      1      
iter:  15  16:24:31  -5.89  -4.33     2.400739    2      1      
iter:  16  16:24:33  -6.15  -4.44     2.400739    2      1      
iter:  17  16:24:35  -6.62  -4.58     2.400739    2      1      
iter:  18  16:24:37  -7.02  -4.95     2.400739    2      1      
iter:  19  16:24:39  -7.40  -5.15     2.400739    2      1      

Converged after 19 iterations.

Dipole moment: (-0.114980, 0.080303, -0.073753) |e|*Ang

Energy contributions relative to reference atoms: (reference = -30790.959854)

Kinetic:        +88.909480
Potential:      -65.992636
External:        +0.000000
XC:             -20.707508
Entropy (-ST):   -0.072487
Local:           +0.227646
--------------------------
Free energy:     +2.364496
Extrapolated:    +2.400739

Fermi level: -3.21277

 Band  Eigenvalues  Occupancy
    0     -5.87201    2.00000
    1     -3.77439    1.99997
    2     -3.47719    1.98995
    3     -3.21378    1.01008
    4     -2.22542    0.00000
    5     -1.80629    0.00000
    6     -1.68870    0.00000
    7     -1.49568    0.00000
    8     -1.25812    0.00000
    9     -0.94240    0.00000

Gap: 0.988 eV
Transition (v -> c):
  (s=0, k=0, n=3, [0.00, 0.00, 0.00]) -> (s=0, k=0, n=4, [0.00, 0.00, 0.00])

Forces in eV/Ang:
  0 Na   -2.74150   -1.71613   -1.53298
  1 Na    0.79772   -3.51603   -0.62006
  2 Na    3.67472   -0.55908   -1.82016
  3 Na   -0.21703    3.29979   -0.75500
  4 Na   -2.34113    2.81323   -1.16557
  5 Na   -1.24781   -0.53803    3.40631
  6 Na    2.07576    0.21295    2.49018

System changes: positions 

Initializing position-dependent things.

Density initialized from wave functions
           .--------------------------------------.  
          /|                                      |  
         / |                                      |  
        /  |                                      |  
       /   |                                      |  
      /    |                                      |  
     /     |                                      |  
    /      |                                      |  
   /       |                                      |  
  /        |                                      |  
 *         |                                      |  
 |         |                                      |  
 |         |                                      |  
 |         |           Na                         |  
 |         |               Na                     |  
 |         |          Na     Na                   |  
 |         |                                      |  
 |         |                  Na                  |  
 |         |        Na   Na                       |  
 |         |                                      |  
 |         .--------------------------------------.  
 |        /                                      /   
 |       /                                      /    
 |      /                                      /     
 |     /                                      /      
 |    /                                      /       
 |   /                                      /        
 |  /                                      /         
 | /                                      /          
 |/                                      /           
 *--------------------------------------*            

Positions:
   0 Na     6.254345    6.588623    6.603394    ( 0.0000,  0.0000,  0.0000)
   1 Na     8.322403    6.223637    6.725331    ( 0.0000,  0.0000,  0.0000)
   2 Na     9.773966    7.739464    6.658533    ( 0.0000,  0.0000,  0.0000)
   3 Na     9.096009    9.844481    6.845656    ( 0.0000,  0.0000,  0.0000)
   4 Na     6.252030    8.471236    7.715059    ( 0.0000,  0.0000,  0.0000)
   5 Na     6.799472    7.979662    9.886309    ( 0.0000,  0.0000,  0.0000)
   6 Na     8.501778    8.152824    8.565819    ( 0.0000,  0.0000,  0.0000)

Unit cell:
           periodic     x           y           z      points  spacing
  1. axis:    no    16.000000    0.000000    0.000000    64     0.2500
  2. axis:    no     0.000000   16.000000    0.000000    64     0.2500
  3. axis:    no     0.000000    0.000000   16.000000    64     0.2500

  Lengths:  16.000000  16.000000  16.000000
  Angles:   90.000000  90.000000  90.000000

Effective grid spacing dv^(1/3) = 0.2500

                     log10-error:    total        iterations:
           time      wfs    density  energy       fermi  poisson
iter:   1  16:24:41  +0.58   +inf     0.295279    33     1      
iter:   2  16:24:43  -0.46  -0.94     0.350208    5      1      
iter:   3  16:24:45  -0.76  -1.14     0.375112    32     1      
iter:   4  16:24:46  -1.43  -1.55     0.373741    2      1      
iter:   5  16:24:48  -1.95  -1.69     0.373105    3      1      
iter:   6  16:24:50  -2.21  -2.16     0.373010    3      1      
iter:   7  16:24:52  -2.45  -2.35     0.372893    2      1      
iter:   8  16:24:54  -2.93  -2.64     0.372850    2      1      
iter:   9  16:24:56  -3.54  -2.80     0.372849    2      1      
iter:  10  16:24:58  -4.07  -2.97     0.372853    2      1      
iter:  11  16:25:00  -4.34  -3.35     0.372852    2      1      
iter:  12  16:25:02  -4.83  -3.47     0.372852    2      1      
iter:  13  16:25:03  -5.23  -3.71     0.372852    2      1      
iter:  14  16:25:05  -5.55  -3.86     0.372852    2      1      
iter:  15  16:25:07  -5.92  -4.50     0.372851    2      1      
iter:  16  16:25:09  -6.32  -4.45     0.372852    2      1      
iter:  17  16:25:11  -6.70  -4.50     0.372852    1      1      
iter:  18  16:25:13  -6.89  -4.48     0.372851    2      1      
iter:  19  16:25:15  -7.33  -4.30     0.372851    1      1      
iter:  20  16:25:17  -7.63  -4.31     0.372852    2      1      

Converged after 20 iterations.

Dipole moment: (-0.103546, 0.084713, -0.055751) |e|*Ang

Energy contributions relative to reference atoms: (reference = -30790.959854)

Kinetic:        +78.543430
Potential:      -59.265241
External:        +0.000000
XC:             -18.989860
Entropy (-ST):   -0.070613
Local:           +0.119828
--------------------------
Free energy:     +0.337545
Extrapolated:    +0.372852

Fermi level: -3.12079

 Band  Eigenvalues  Occupancy
    0     -5.73647    2.00000
    1     -3.73047    1.99999
    2     -3.43783    1.99648
    3     -3.12114    1.00353
    4     -2.16136    0.00000
    5     -1.78334    0.00000
    6     -1.67773    0.00000
    7     -1.49286    0.00000
    8     -1.26429    0.00000
    9     -0.97616    0.00000

Gap: 0.960 eV
Transition (v -> c):
  (s=0, k=0, n=3, [0.00, 0.00, 0.00]) -> (s=0, k=0, n=4, [0.00, 0.00, 0.00])

Forces in eV/Ang:
  0 Na   -2.24513   -1.35734   -1.18954
  1 Na    0.66178   -2.79392   -0.36494
  2 Na    2.98326   -0.42182   -1.51528
  3 Na   -0.28176    2.63883   -0.59359
  4 Na   -1.72418    2.34225   -0.94973
  5 Na   -1.15569   -0.50682    2.74683
  6 Na    1.76222    0.10059    1.86680

System changes: positions 

Initializing position-dependent things.

Density initialized from wave functions
           .--------------------------------------.  
          /|                                      |  
         / |                                      |  
        /  |                                      |  
       /   |                                      |  
      /    |                                      |  
     /     |                                      |  
    /      |                                      |  
   /       |                                      |  
  /        |                                      |  
 *         |                                      |  
 |         |                                      |  
 |         |                                      |  
 |         |          Na                          |  
 |         |               Na                     |  
 |         |         Na      Na                   |  
 |         |                                      |  
 |         |                  Na                  |  
 |         |        Na   Na                       |  
 |         |                                      |  
 |         .--------------------------------------.  
 |        /                                      /   
 |       /                                      /    
 |      /                                      /     
 |     /                                      /      
 |    /                                      /       
 |   /                                      /        
 |  /                                      /         
 | /                                      /          
 |/                                      /           
 *--------------------------------------*            

Positions:
   0 Na     6.193782    6.549571    6.568702    ( 0.0000,  0.0000,  0.0000)
   1 Na     8.339155    6.142959    6.710806    ( 0.0000,  0.0000,  0.0000)
   2 Na     9.856539    7.728180    6.617720    ( 0.0000,  0.0000,  0.0000)
   3 Na     9.090912    9.918149    6.828082    ( 0.0000,  0.0000,  0.0000)
   4 Na     6.199650    8.535917    7.689606    ( 0.0000,  0.0000,  0.0000)
   5 Na     6.771867    7.967434    9.961775    ( 0.0000,  0.0000,  0.0000)
   6 Na     8.548105    8.157710    8.623434    ( 0.0000,  0.0000,  0.0000)

Unit cell:
           periodic     x           y           z      points  spacing
  1. axis:    no    16.000000    0.000000    0.000000    64     0.2500
  2. axis:    no     0.000000   16.000000    0.000000    64     0.2500
  3. axis:    no     0.000000    0.000000   16.000000    64     0.2500

  Lengths:  16.000000  16.000000  16.000000
  Angles:   90.000000  90.000000  90.000000

Effective grid spacing dv^(1/3) = 0.2500

                     log10-error:    total        iterations:
           time      wfs    density  energy       fermi  poisson
iter:   1  16:25:19  +0.49   +inf    -1.225131    33     1      
iter:   2  16:25:21  -0.57  -0.98    -1.175299    32     1      
iter:   3  16:25:23  -0.79  -1.17    -1.151931    33     1      
iter:   4  16:25:24  -1.53  -1.63    -1.153167    2      1      
iter:   5  16:25:26  -2.16  -1.76    -1.153761    2      1      
iter:   6  16:25:28  -2.32  -2.16    -1.153736    3      1      
iter:   7  16:25:30  -2.54  -2.37    -1.153845    2      1      
iter:   8  16:25:32  -2.99  -2.73    -1.153882    2      1      
iter:   9  16:25:34  -3.77  -2.80    -1.153885    3      1      
iter:  10  16:25:36  -3.98  -2.89    -1.153881    2      1      
iter:  11  16:25:38  -4.06  -3.36    -1.153884    2      1      
iter:  12  16:25:40  -4.93  -3.47    -1.153883    2      1      
iter:  13  16:25:41  -5.13  -3.81    -1.153883    2      1      
iter:  14  16:25:43  -5.46  -4.12    -1.153883    2      1      
iter:  15  16:25:45  -6.00  -4.24    -1.153883    2      1      
iter:  16  16:25:47  -6.41  -4.35    -1.153884    2      1      
iter:  17  16:25:49  -6.76  -4.47    -1.153884    2      1      
iter:  18  16:25:51  -7.17  -5.13    -1.153884    1      1      
iter:  19  16:25:53  -7.57  -5.12    -1.153884    2      1      

Converged after 19 iterations.

Dipole moment: (-0.094808, 0.089839, -0.037955) |e|*Ang

Energy contributions relative to reference atoms: (reference = -30790.959854)

Kinetic:        +69.336785
Potential:      -53.048597
External:        +0.000000
XC:             -17.470752
Entropy (-ST):   -0.070049
Local:           +0.063705
--------------------------
Free energy:     -1.188908
Extrapolated:    -1.153884

Fermi level: -3.05303

 Band  Eigenvalues  Occupancy
    0     -5.60106    2.00000
    1     -3.68891    1.99999
    2     -3.40295    1.99818
    3     -3.05321    1.00183
    4     -2.09982    0.00000
    5     -1.76197    0.00000
    6     -1.66844    0.00000
    7     -1.49102    0.00000
    8     -1.27159    0.00000
    9     -1.00616    0.00000

Gap: 0.953 eV
Transition (v -> c):
  (s=0, k=0, n=3, [0.00, 0.00, 0.00]) -> (s=0, k=0, n=4, [0.00, 0.00, 0.00])

Forces in eV/Ang:
  0 Na   -1.86529   -1.09319   -0.93948
  1 Na    0.54412   -2.26809   -0.19403
  2 Na    2.45657   -0.28833   -1.26920
  3 Na   -0.30050    2.11316   -0.46460
  4 Na   -1.25966    1.95304   -0.74395
  5 Na   -1.06210   -0.45861    2.20801
  6 Na    1.48612    0.04526    1.40380

System changes: positions 

Initializing position-dependent things.

Density initialized from wave functions
           .--------------------------------------.  
          /|                                      |  
         / |                                      |  
        /  |                                      |  
       /   |                                      |  
      /    |                                      |  
     /     |                                      |  
    /      |                                      |  
   /       |                                      |  
  /        |                                      |  
 *         |                                      |  
 |         |                                      |  
 |         |          Na                          |  
 |         |                                      |  
 |         |               Na                     |  
 |         |         Na      Na                   |  
 |         |                                      |  
 |         |                  Na                  |  
 |         |        Na   Na                       |  
 |         |                                      |  
 |         .--------------------------------------.  
 |        /                                      /   
 |       /                                      /    
 |      /                                      /     
 |     /                                      /      
 |    /                                      /       
 |   /                                      /        
 |  /                                      /         
 | /                                      /          
 |/                                      /           
 *--------------------------------------*            

Positions:
   0 Na     6.137252    6.514417    6.537980    ( 0.0000,  0.0000,  0.0000)
   1 Na     8.355706    6.070188    6.700191    ( 0.0000,  0.0000,  0.0000)
   2 Na     9.932377    7.717222    6.579129    ( 0.0000,  0.0000,  0.0000)
   3 Na     9.083937    9.986146    6.812144    ( 0.0000,  0.0000,  0.0000)
   4 Na     6.154299    8.596844    7.664777    ( 0.0000,  0.0000,  0.0000)
   5 Na     6.743232    7.954651   10.032297    ( 0.0000,  0.0000,  0.0000)
   6 Na     8.593217    8.160452    8.673646    ( 0.0000,  0.0000,  0.0000)

Unit cell:
           periodic     x           y           z      points  spacing
  1. axis:    no    16.000000    0.000000    0.000000    64     0.2500
  2. axis:    no     0.000000   16.000000    0.000000    64     0.2500
  3. axis:    no     0.000000    0.000000   16.000000    64     0.2500

  Lengths:  16.000000  16.000000  16.000000
  Angles:   90.000000  90.000000  90.000000

Effective grid spacing dv^(1/3) = 0.2500

                     log10-error:    total        iterations:
           time      wfs    density  energy       fermi  poisson
iter:   1  16:25:55  +0.37   +inf    -2.359987    33     1      
iter:   2  16:25:57  -0.70  -1.02    -2.317659    7      1      
iter:   3  16:25:59  -0.85  -1.21    -2.297653    29     1      
iter:   4  16:26:01  -1.65  -1.70    -2.298641    3      1      
iter:   5  16:26:02  -2.38  -1.83    -2.299166    2      1      
iter:   6  16:26:04  -2.38  -2.17    -2.299085    3      1      
iter:   7  16:26:06  -2.71  -2.42    -2.299176    2      1      
iter:   8  16:26:08  -3.18  -2.79    -2.299200    2      1      
iter:   9  16:26:10  -3.94  -2.83    -2.299198    2      1      
iter:  10  16:26:12  -4.36  -3.16    -2.299201    2      1      
iter:  11  16:26:14  -4.40  -3.33    -2.299202    2      1      
iter:  12  16:26:16  -5.11  -3.49    -2.299201    2      1      
iter:  13  16:26:18  -5.57  -3.75    -2.299201    2      1      
iter:  14  16:26:19  -5.64  -4.03    -2.299201    2      1      
iter:  15  16:26:21  -6.31  -4.09    -2.299201    2      1      
iter:  16  16:26:23  -6.66  -4.38    -2.299201    2      1      
iter:  17  16:26:25  -7.14  -4.56    -2.299201    2      1      
iter:  18  16:26:27  -7.55  -4.91    -2.299201    2      1      

Converged after 18 iterations.

Dipole moment: (-0.088118, 0.094211, -0.022364) |e|*Ang

Energy contributions relative to reference atoms: (reference = -30790.959854)

Kinetic:        +61.364165
Potential:      -47.515212
External:        +0.000000
XC:             -16.147284
Entropy (-ST):   -0.069862
Local:           +0.034060
--------------------------
Free energy:     -2.334132
Extrapolated:    -2.299201

Fermi level: -3.00463

 Band  Eigenvalues  Occupancy
    0     -5.47318    2.00000
    1     -3.64980    2.00000
    2     -3.37133    1.99869
    3     -3.00476    1.00131
    4     -2.04486    0.00000
    5     -1.74452    0.00000
    6     -1.66000    0.00000
    7     -1.48939    0.00000
    8     -1.27887    0.00000
    9     -1.03265    0.00000

Gap: 0.960 eV
Transition (v -> c):
  (s=0, k=0, n=3, [0.00, 0.00, 0.00]) -> (s=0, k=0, n=4, [0.00, 0.00, 0.00])

Forces in eV/Ang:
  0 Na   -1.56993   -0.89310   -0.75200
  1 Na    0.44855   -1.87469   -0.08273
  2 Na    2.04317   -0.17329   -1.07196
  3 Na   -0.29302    1.69732   -0.36518
  4 Na   -0.91155    1.63011   -0.55901
  5 Na   -0.96530   -0.40591    1.76810
  6 Na    1.25189    0.02046    1.06471

System changes: positions 

Initializing position-dependent things.

Density initialized from wave functions
           .--------------------------------------.  
          /|                                      |  
         / |                                      |  
        /  |                                      |  
       /   |                                      |  
      /    |                                      |  
     /     |                                      |  
    /      |                                      |  
   /       |                                      |  
  /        |                                      |  
 *         |                                      |  
 |         |                                      |  
 |         |          Na                          |  
 |         |                                      |  
 |         |               Na                     |  
 |         |         Na      Na                   |  
 |         |                                      |  
 |         |                  Na                  |  
 |         |        Na   Na                       |  
 |         |                                      |  
 |         .--------------------------------------.  
 |        /                                      /   
 |       /                                      /    
 |      /                                      /     
 |     /                                      /      
 |    /                                      /       
 |   /                                      /        
 |  /                                      /         
 | /                                      /          
 |/                                      /           
 *--------------------------------------*            

Positions:
   0 Na     6.083095    6.481853    6.509931    ( 0.0000,  0.0000,  0.0000)
   1 Na     8.372089    6.002595    6.692538    ( 0.0000,  0.0000,  0.0000)
   2 Na    10.003980    7.706970    6.541910    ( 0.0000,  0.0000,  0.0000)
   3 Na     9.075641   10.050053    6.797477    ( 0.0000,  0.0000,  0.0000)
   4 Na     6.114269    8.655151    7.640924    ( 0.0000,  0.0000,  0.0000)
   5 Na     6.713522    7.941458   10.099103    ( 0.0000,  0.0000,  0.0000)
   6 Na     8.637468    8.161841    8.718339    ( 0.0000,  0.0000,  0.0000)

Unit cell:
           periodic     x           y           z      points  spacing
  1. axis:    no    16.000000    0.000000    0.000000    64     0.2500
  2. axis:    no     0.000000   16.000000    0.000000    64     0.2500
  3. axis:    no     0.000000    0.000000   16.000000    64     0.2500

  Lengths:  16.000000  16.000000  16.000000
  Angles:   90.000000  90.000000  90.000000

Effective grid spacing dv^(1/3) = 0.2500

                     log10-error:    total        iterations:
           time      wfs    density  energy       fermi  poisson
iter:   1  16:26:29  +0.28   +inf    -3.234869    32     1      
iter:   2  16:26:31  -0.81  -1.05    -3.198693    5      1      
iter:   3  16:26:33  -0.91  -1.25    -3.181199    31     1      
iter:   4  16:26:35  -1.74  -1.77    -3.181994    3      1      
iter:   5  16:26:37  -2.54  -1.89    -3.182448    3      1      
iter:   6  16:26:38  -2.38  -2.19    -3.182373    3      1      
iter:   7  16:26:40  -2.92  -2.45    -3.182436    2      1      
iter:   8  16:26:42  -3.40  -2.83    -3.182451    2      1      
iter:   9  16:26:44  -4.11  -2.87    -3.182450    2      1      
iter:  10  16:26:46  -4.56  -3.29    -3.182451    2      1      
iter:  11  16:26:48  -4.78  -3.50    -3.182452    2      1      
iter:  12  16:26:50  -5.24  -3.91    -3.182452    2      1      
iter:  13  16:26:52  -5.66  -3.97    -3.182452    2      1      
iter:  14  16:26:53  -6.09  -3.95    -3.182452    2      1      
iter:  15  16:26:55  -6.10  -4.26    -3.182452    2      1      
iter:  16  16:26:57  -6.66  -4.59    -3.182452    1      1      
iter:  17  16:26:59  -7.15  -4.73    -3.182452    2      1      
iter:  18  16:27:01  -7.53  -5.05    -3.182452    1      1      

Converged after 18 iterations.

Dipole moment: (-0.082664, 0.097496, -0.008948) |e|*Ang

Energy contributions relative to reference atoms: (reference = -30790.959854)

Kinetic:        +54.358607
Potential:      -42.554245
External:        +0.000000
XC:             -14.969386
Entropy (-ST):   -0.069809
Local:           +0.017476
--------------------------
Free energy:     -3.217357
Extrapolated:    -3.182452

Fermi level: -2.96925

 Band  Eigenvalues  Occupancy
    0     -5.35274    2.00000
    1     -3.61247    1.99999
    2     -3.34176    1.99884
    3     -2.96937    1.00117
    4     -1.99678    0.00000
    5     -1.73244    0.00000
    6     -1.65150    0.00000
    7     -1.48707    0.00000
    8     -1.28560    0.00000
    9     -1.05613    0.00000

Gap: 0.973 eV
Transition (v -> c):
  (s=0, k=0, n=3, [0.00, 0.00, 0.00]) -> (s=0, k=0, n=4, [0.00, 0.00, 0.00])

Forces in eV/Ang:
  0 Na   -1.32836   -0.73359   -0.60561
  1 Na    0.36590   -1.56213   -0.01064
  2 Na    1.70225   -0.07920   -0.90932
  3 Na   -0.27013    1.35703   -0.28448
  4 Na   -0.65027    1.35593   -0.40769
  5 Na   -0.86776   -0.34819    1.40753
  6 Na    1.04719    0.01249    0.80980

System changes: positions 

Initializing position-dependent things.

Density initialized from wave functions
           .--------------------------------------.  
          /|                                      |  
         / |                                      |  
        /  |                                      |  
       /   |                                      |  
      /    |                                      |  
     /     |                                      |  
    /      |                                      |  
   /       |                                      |  
  /        |                                      |  
 *         |                                      |  
 |         |                                      |  
 |         |          Na                          |  
 |         |                                      |  
 |         |               Na                     |  
 |         |         Na      Na                   |  
 |         |                                      |  
 |         |                  Na                  |  
 |         |        Na   Na                       |  
 |         |                                      |  
 |         .--------------------------------------.  
 |        /                                      /   
 |       /                                      /    
 |      /                                      /     
 |     /                                      /      
 |    /                                      /       
 |   /                                      /        
 |  /                                      /         
 | /                                      /          
 |/                                      /           
 *--------------------------------------*            

Positions:
   0 Na     6.032451    6.452263    6.484769    ( 0.0000,  0.0000,  0.0000)
   1 Na     8.387561    5.940917    6.687388    ( 0.0000,  0.0000,  0.0000)
   2 Na    10.070111    7.698170    6.506996    ( 0.0000,  0.0000,  0.0000)
   3 Na     9.066796   10.108314    6.784384    ( 0.0000,  0.0000,  0.0000)
   4 Na     6.079930    8.709299    7.619265    ( 0.0000,  0.0000,  0.0000)
   5 Na     6.684010    7.928560   10.160258    ( 0.0000,  0.0000,  0.0000)
   6 Na     8.679229    8.162416    8.757208    ( 0.0000,  0.0000,  0.0000)

Unit cell:
           periodic     x           y           z      points  spacing
  1. axis:    no    16.000000    0.000000    0.000000    64     0.2500
  2. axis:    no     0.000000   16.000000    0.000000    64     0.2500
  3. axis:    no     0.000000    0.000000   16.000000    64     0.2500

  Lengths:  16.000000  16.000000  16.000000
  Angles:   90.000000  90.000000  90.000000

Effective grid spacing dv^(1/3) = 0.2500

                     log10-error:    total        iterations:
           time      wfs    density  energy       fermi  poisson
iter:   1  16:27:03  +0.16   +inf    -3.890597    33     1      
iter:   2  16:27:05  -0.95  -1.10    -3.861591    5      1      
iter:   3  16:27:07  -1.00  -1.29    -3.847309    33     1      
iter:   4  16:27:09  -1.87  -1.83    -3.847859    3      1      
iter:   5  16:27:11  -2.74  -1.96    -3.848196    3      1      
iter:   6  16:27:12  -2.41  -2.23    -3.848158    3      1      
iter:   7  16:27:14  -3.21  -2.47    -3.848180    2      1      
iter:   8  16:27:16  -3.71  -2.88    -3.848188    2      1      
iter:   9  16:27:18  -4.29  -2.94    -3.848188    2      1      
iter:  10  16:27:20  -4.70  -3.42    -3.848188    2      1      
iter:  11  16:27:22  -5.10  -3.46    -3.848188    2      1      
iter:  12  16:27:24  -5.43  -3.94    -3.848188    1      1      
iter:  13  16:27:26  -5.78  -4.09    -3.848189    2      1      
iter:  14  16:27:28  -6.12  -4.24    -3.848189    2      1      
iter:  15  16:27:29  -6.49  -4.57    -3.848189    1      1      
iter:  16  16:27:31  -6.84  -4.60    -3.848189    1      1      
iter:  17  16:27:33  -7.13  -4.70    -3.848189    2      1      
iter:  18  16:27:35  -7.57  -5.40    -3.848189    1      1      

Converged after 18 iterations.

Dipole moment: (-0.077888, 0.099443, 0.001981) |e|*Ang

Energy contributions relative to reference atoms: (reference = -30790.959854)

Kinetic:        +48.376776
Potential:      -38.251495
External:        +0.000000
XC:             -13.946665
Entropy (-ST):   -0.069822
Local:           +0.008107
--------------------------
Free energy:     -3.883099
Extrapolated:    -3.848189

Fermi level: -2.94378

 Band  Eigenvalues  Occupancy
    0     -5.24380    2.00000
    1     -3.57811    1.99999
    2     -3.31495    1.99881
    3     -2.94390    1.00120
    4     -1.95728    0.00000
    5     -1.72644    0.00000
    6     -1.64313    0.00000
    7     -1.48380    0.00000
    8     -1.29123    0.00000
    9     -1.07600    0.00000

Gap: 0.987 eV
Transition (v -> c):
  (s=0, k=0, n=3, [0.00, 0.00, 0.00]) -> (s=0, k=0, n=4, [0.00, 0.00, 0.00])

Forces in eV/Ang:
  0 Na   -1.12756   -0.60856   -0.49084
  1 Na    0.29973   -1.31196    0.03657
  2 Na    1.42736   -0.00930   -0.77520
  3 Na   -0.24189    1.09067   -0.22303
  4 Na   -0.45884    1.13021   -0.28599
  5 Na   -0.77477   -0.29663    1.11926
  6 Na    0.87624    0.01052    0.62054

System changes: positions 

Initializing position-dependent things.

Density initialized from wave functions
           .--------------------------------------.  
          /|                                      |  
         / |                                      |  
        /  |                                      |  
       /   |                                      |  
      /    |                                      |  
     /     |                                      |  
    /      |                                      |  
   /       |                                      |  
  /        |                                      |  
 *         |                                      |  
 |         |                                      |  
 |         |          Na                          |  
 |         |                                      |  
 |         |               Na                     |  
 |         |         Na      Na                   |  
 |         |                                      |  
 |         |                   Na                 |  
 |         |        Na   Na                       |  
 |         |                                      |  
 |         .--------------------------------------.  
 |        /                                      /   
 |       /                                      /    
 |      /                                      /     
 |     /                                      /      
 |    /                                      /       
 |   /                                      /        
 |  /                                      /         
 | /                                      /          
 |/                                      /           
 *--------------------------------------*            

Positions:
   0 Na     5.984575    6.424922    6.461806    ( 0.0000,  0.0000,  0.0000)
   1 Na     8.402099    5.883613    6.684137    ( 0.0000,  0.0000,  0.0000)
   2 Na    10.132018    7.691003    6.473933    ( 0.0000,  0.0000,  0.0000)
   3 Na     9.057718   10.161812    6.772589    ( 0.0000,  0.0000,  0.0000)
   4 Na     6.050252    8.759989    7.599914    ( 0.0000,  0.0000,  0.0000)
   5 Na     6.654761    7.916057   10.216424    ( 0.0000,  0.0000,  0.0000)
   6 Na     8.718690    8.162593    8.791518    ( 0.0000,  0.0000,  0.0000)

Unit cell:
           periodic     x           y           z      points  spacing
  1. axis:    no    16.000000    0.000000    0.000000    64     0.2500
  2. axis:    no     0.000000   16.000000    0.000000    64     0.2500
  3. axis:    no     0.000000    0.000000   16.000000    64     0.2500

  Lengths:  16.000000  16.000000  16.000000
  Angles:   90.000000  90.000000  90.000000

Effective grid spacing dv^(1/3) = 0.2500

                     log10-error:    total        iterations:
           time      wfs    density  energy       fermi  poisson
iter:   1  16:27:37  +0.05   +inf    -4.392906    33     1      
iter:   2  16:27:39  -1.08  -1.14    -4.369199    4      1      
iter:   3  16:27:41  -1.09  -1.34    -4.357365    6      1      
iter:   4  16:27:43  -1.98  -1.89    -4.357739    3      1      
iter:   5  16:27:45  -2.91  -2.03    -4.357981    3      1      
iter:   6  16:27:47  -2.46  -2.28    -4.357982    3      1      
iter:   7  16:27:48  -3.48  -2.49    -4.357975    2      1      
iter:   8  16:27:50  -3.99  -2.92    -4.357979    2      1      
iter:   9  16:27:52  -4.45  -3.00    -4.357979    2      1      
iter:  10  16:27:54  -4.85  -3.50    -4.357979    2      1      
iter:  11  16:27:56  -5.31  -3.46    -4.357979    2      1      
iter:  12  16:27:58  -5.65  -3.80    -4.357979    2      1      
iter:  13  16:28:00  -5.92  -4.04    -4.357979    1      1      
iter:  14  16:28:02  -6.28  -4.36    -4.357979    1      1      
iter:  15  16:28:03  -6.62  -4.45    -4.357979    1      1      
iter:  16  16:28:05  -6.98  -4.64    -4.357979    1      1      
iter:  17  16:28:07  -7.33  -4.76    -4.357979    1      1      
iter:  18  16:28:09  -7.68  -4.96    -4.357979    1      1      

Converged after 18 iterations.

Dipole moment: (-0.073427, 0.100252, 0.010983) |e|*Ang

Energy contributions relative to reference atoms: (reference = -30790.959854)

Kinetic:        +43.215576
Potential:      -34.493678
External:        +0.000000
XC:             -13.047532
Entropy (-ST):   -0.069875
Local:           +0.002591
--------------------------
Free energy:     -4.392917
Extrapolated:    -4.357979

Fermi level: -2.92485

 Band  Eigenvalues  Occupancy
    0     -5.14507    2.00000
    1     -3.54649    1.99999
    2     -3.29045    1.99867
    3     -2.92499    1.00134
    4     -1.92554    0.00000
    5     -1.72510    0.00000
    6     -1.63548    0.00000
    7     -1.47946    0.00000
    8     -1.29549    0.00000
    9     -1.09265    0.00000

Gap: 0.999 eV
Transition (v -> c):
  (s=0, k=0, n=3, [0.00, 0.00, 0.00]) -> (s=0, k=0, n=4, [0.00, 0.00, 0.00])

Forces in eV/Ang:
  0 Na   -0.95969   -0.50680   -0.39963
  1 Na    0.24694   -1.10956    0.06637
  2 Na    1.19644    0.03926   -0.66258
  3 Na   -0.21053    0.87724   -0.17293
  4 Na   -0.31593    0.93798   -0.19334
  5 Na   -0.68740   -0.25013    0.88825
  6 Na    0.73125    0.01296    0.47701

System changes: positions 

Initializing position-dependent things.

Density initialized from wave functions
           .--------------------------------------.  
          /|                                      |  
         / |                                      |  
        /  |                                      |  
       /   |                                      |  
      /    |                                      |  
     /     |                                      |  
    /      |                                      |  
   /       |                                      |  
  /        |                                      |  
 *         |                                      |  
 |         |                                      |  
 |         |          Na                          |  
 |         |                                      |  
 |         |               Na                     |  
 |         |         Na      Na                   |  
 |         |                                      |  
 |         |                   Na                 |  
 |         |       Na    Na                       |  
 |         |                                      |  
 |         .--------------------------------------.  
 |        /                                      /   
 |       /                                      /    
 |      /                                      /     
 |     /                                      /      
[...]
iter:  12  16:41:25  -5.93  -4.31    -6.045524    1      1      
iter:  13  16:41:27  -6.30  -4.62    -6.045524    1      1      
iter:  14  16:41:29  -6.58  -4.68    -6.045524    1      1      
iter:  15  16:41:31  -6.98  -5.01    -6.045524    1      1      
iter:  16  16:41:33  -7.34  -5.22    -6.045524    1      1      
iter:  17  16:41:35  -7.70  -5.39    -6.045524    1      1      

Converged after 17 iterations.

Dipole moment: (-0.011745, 0.029746, 0.021233) |e|*Ang

Energy contributions relative to reference atoms: (reference = -30790.959854)

Kinetic:        +14.462811
Potential:      -12.804727
External:        +0.000000
XC:              -7.661343
Entropy (-ST):   -0.069788
Local:           -0.007372
--------------------------
Free energy:     -6.080418
Extrapolated:    -6.045524

Fermi level: -2.73717

 Band  Eigenvalues  Occupancy
    0     -4.52506    2.00000
    1     -3.37382    1.99999
    2     -3.11226    1.99890
    3     -2.73729    1.00111
    4     -1.93899    0.00000
    5     -1.78334    0.00000
    6     -1.61622    0.00000
    7     -1.39784    0.00000
    8     -1.22835    0.00000
    9     -1.04927    0.00000

Gap: 0.798 eV
Transition (v -> c):
  (s=0, k=0, n=3, [0.00, 0.00, 0.00]) -> (s=0, k=0, n=4, [0.00, 0.00, 0.00])

Forces in eV/Ang:
  0 Na   -0.00737    0.02238    0.06868
  1 Na    0.02776   -0.04134    0.03631
  2 Na   -0.02428   -0.00402   -0.04252
  3 Na    0.01459    0.04736   -0.00327
  4 Na   -0.01398    0.09068   -0.09072
  5 Na   -0.01635   -0.10196   -0.01915
  6 Na    0.01737   -0.00974    0.05082

System changes: positions 

Initializing position-dependent things.

Density initialized from wave functions
           .--------------------------------------.  
          /|                                      |  
         / |                                      |  
        /  |                                      |  
       /   |                                      |  
      /    |                                      |  
     /     |                                      |  
    /      |                                      |  
   /       |                                      |  
  /        |                                      |  
 *         |                                      |  
 |         |                                      |  
 |         |         Na                           |  
 |         |                                      |  
 |         |                Na                    |  
 |         |          Na      Na                  |  
 |         |                                      |  
 |         |                                      |  
 |         |      Na     Na     Na                |  
 |         |                                      |  
 |         .--------------------------------------.  
 |        /                                      /   
 |       /                                      /    
 |      /                                      /     
 |     /                                      /      
 |    /                                      /       
 |   /                                      /        
 |  /                                      /         
 | /                                      /          
 |/                                      /           
 *--------------------------------------*            

Positions:
   0 Na     5.510893    6.166720    6.484848    ( 0.0000,  0.0000,  0.0000)
   1 Na     8.545243    5.347798    6.904355    ( 0.0000,  0.0000,  0.0000)
   2 Na    10.620573    7.764413    6.062132    ( 0.0000,  0.0000,  0.0000)
   3 Na     9.005064   10.687958    6.721619    ( 0.0000,  0.0000,  0.0000)
   4 Na     6.152584    9.256756    7.618918    ( 0.0000,  0.0000,  0.0000)
   5 Na     6.129770    7.645625   10.333042    ( 0.0000,  0.0000,  0.0000)
   6 Na     9.043082    8.138642    8.871921    ( 0.0000,  0.0000,  0.0000)

Unit cell:
           periodic     x           y           z      points  spacing
  1. axis:    no    16.000000    0.000000    0.000000    64     0.2500
  2. axis:    no     0.000000   16.000000    0.000000    64     0.2500
  3. axis:    no     0.000000    0.000000   16.000000    64     0.2500

  Lengths:  16.000000  16.000000  16.000000
  Angles:   90.000000  90.000000  90.000000

Effective grid spacing dv^(1/3) = 0.2500

                     log10-error:    total        iterations:
           time      wfs    density  energy       fermi  poisson
iter:   1  16:41:37  -2.19   +inf    -6.048846    2      1      
iter:   2  16:41:39  -3.06  -2.55    -6.048874    2      1      
iter:   3  16:41:41  -3.70  -2.67    -6.048873    2      1      
iter:   4  16:41:43  -4.22  -3.09    -6.048877    2      1      
iter:   5  16:41:45  -4.67  -3.28    -6.048879    2      1      
iter:   6  16:41:46  -5.10  -3.55    -6.048880    2      1      
iter:   7  16:41:48  -5.53  -3.89    -6.048880    1      1      
iter:   8  16:41:50  -5.93  -4.20    -6.048880    1      1      
iter:   9  16:41:52  -6.31  -4.48    -6.048880    1      1      
iter:  10  16:41:54  -6.67  -4.58    -6.048880    1      1      
iter:  11  16:41:56  -7.02  -4.80    -6.048880    1      1      
iter:  12  16:41:58  -7.35  -5.06    -6.048880    1      1      
iter:  13  16:41:59  -7.73  -5.42    -6.048880    1      1      

Converged after 13 iterations.

Dipole moment: (-0.011746, 0.029022, 0.020778) |e|*Ang

Energy contributions relative to reference atoms: (reference = -30790.959854)

Kinetic:        +14.337646
Potential:      -12.706677
External:        +0.000000
XC:              -7.637592
Entropy (-ST):   -0.069782
Local:           -0.007365
--------------------------
Free energy:     -6.083771
Extrapolated:    -6.048880

Fermi level: -2.73549

 Band  Eigenvalues  Occupancy
    0     -4.52287    2.00000
    1     -3.37357    1.99999
    2     -3.11125    1.99891
    3     -2.73560    1.00109
    4     -1.93999    0.00000
    5     -1.78477    0.00000
    6     -1.61628    0.00000
    7     -1.39719    0.00000
    8     -1.22739    0.00000
    9     -1.04824    0.00000

Gap: 0.796 eV
Transition (v -> c):
  (s=0, k=0, n=3, [0.00, 0.00, 0.00]) -> (s=0, k=0, n=4, [0.00, 0.00, 0.00])

Forces in eV/Ang:
  0 Na   -0.00450    0.02392    0.06992
  1 Na    0.02762   -0.03942    0.03556
  2 Na   -0.02829   -0.00443   -0.03927
  3 Na    0.01554    0.04373   -0.00213
  4 Na   -0.01404    0.08726   -0.08694
  5 Na   -0.01425   -0.10053   -0.02522
  6 Na    0.01551   -0.00821    0.04813

System changes: positions 

Initializing position-dependent things.

Density initialized from wave functions
           .--------------------------------------.  
          /|                                      |  
         / |                                      |  
        /  |                                      |  
       /   |                                      |  
      /    |                                      |  
     /     |                                      |  
    /      |                                      |  
   /       |                                      |  
  /        |                                      |  
 *         |                                      |  
 |         |                                      |  
 |         |         Na                           |  
 |         |                                      |  
 |         |                Na                    |  
 |         |          Na      Na                  |  
 |         |                                      |  
 |         |                                      |  
 |         |      Na     Na     Na                |  
 |         |                                      |  
 |         .--------------------------------------.  
 |        /                                      /   
 |       /                                      /    
 |      /                                      /     
 |     /                                      /      
 |    /                                      /       
 |   /                                      /        
 |  /                                      /         
 | /                                      /          
 |/                                      /           
 *--------------------------------------*            

Positions:
   0 Na     5.506903    6.166532    6.500946    ( 0.0000,  0.0000,  0.0000)
   1 Na     8.549581    5.340496    6.916989    ( 0.0000,  0.0000,  0.0000)
   2 Na    10.618567    7.765929    6.051187    ( 0.0000,  0.0000,  0.0000)
   3 Na     9.008179   10.702560    6.720914    ( 0.0000,  0.0000,  0.0000)
   4 Na     6.160557    9.272517    7.610877    ( 0.0000,  0.0000,  0.0000)
   5 Na     6.117469    7.625965   10.322574    ( 0.0000,  0.0000,  0.0000)
   6 Na     9.045991    8.134621    8.873324    ( 0.0000,  0.0000,  0.0000)

Unit cell:
           periodic     x           y           z      points  spacing
  1. axis:    no    16.000000    0.000000    0.000000    64     0.2500
  2. axis:    no     0.000000   16.000000    0.000000    64     0.2500
  3. axis:    no     0.000000    0.000000   16.000000    64     0.2500

  Lengths:  16.000000  16.000000  16.000000
  Angles:   90.000000  90.000000  90.000000

Effective grid spacing dv^(1/3) = 0.2500

                     log10-error:    total        iterations:
           time      wfs    density  energy       fermi  poisson
iter:   1  16:42:02  -1.48   +inf    -6.056196    2      1      
iter:   2  16:42:04  -2.35  -2.19    -6.056330    2      1      
iter:   3  16:42:06  -2.99  -2.32    -6.056320    2      1      
iter:   4  16:42:07  -3.51  -2.73    -6.056338    2      1      
iter:   5  16:42:09  -3.96  -2.92    -6.056347    2      1      
iter:   6  16:42:11  -4.38  -3.19    -6.056351    2      1      
iter:   7  16:42:13  -4.82  -3.53    -6.056351    2      1      
iter:   8  16:42:15  -5.21  -3.84    -6.056352    1      1      
iter:   9  16:42:17  -5.60  -4.12    -6.056352    2      1      
iter:  10  16:42:19  -5.96  -4.23    -6.056352    1      1      
iter:  11  16:42:20  -6.30  -4.43    -6.056352    2      1      
iter:  12  16:42:22  -6.64  -4.73    -6.056352    1      1      
iter:  13  16:42:24  -7.00  -5.04    -6.056352    1      1      
iter:  14  16:42:26  -7.32  -5.13    -6.056352    1      1      
iter:  15  16:42:28  -7.67  -5.41    -6.056352    1      1      

Converged after 15 iterations.

Dipole moment: (-0.011828, 0.027461, 0.019887) |e|*Ang

Energy contributions relative to reference atoms: (reference = -30790.959854)

Kinetic:        +14.046876
Potential:      -12.479024
External:        +0.000000
XC:              -7.581988
Entropy (-ST):   -0.069773
Local:           -0.007329
--------------------------
Free energy:     -6.091238
Extrapolated:    -6.056352

Fermi level: -2.73200

 Band  Eigenvalues  Occupancy
    0     -4.51773    2.00000
    1     -3.37290    1.99999
    2     -3.10896    1.99894
    3     -2.73211    1.00107
    4     -1.94211    0.00000
    5     -1.78810    0.00000
    6     -1.61656    0.00000
    7     -1.39573    0.00000
    8     -1.22526    0.00000
    9     -1.04640    0.00000

Gap: 0.790 eV
Transition (v -> c):
  (s=0, k=0, n=3, [0.00, 0.00, 0.00]) -> (s=0, k=0, n=4, [0.00, 0.00, 0.00])

Forces in eV/Ang:
  0 Na    0.00176    0.02710    0.07255
  1 Na    0.02727   -0.03512    0.03405
  2 Na   -0.03707   -0.00532   -0.03174
  3 Na    0.01758    0.03538    0.00027
  4 Na   -0.01340    0.07928   -0.07742
  5 Na   -0.00967   -0.09633   -0.03952
  6 Na    0.01110   -0.00463    0.04137

System changes: positions 

Initializing position-dependent things.

Density initialized from wave functions
           .--------------------------------------.  
          /|                                      |  
         / |                                      |  
        /  |                                      |  
       /   |                                      |  
      /    |                                      |  
     /     |                                      |  
    /      |                                      |  
   /       |                                      |  
  /        |                                      |  
 *         |                                      |  
 |         |                                      |  
 |         |         Na                           |  
 |         |                                      |  
 |         |                Na                    |  
 |         |          Na      Na                  |  
 |         |                                      |  
 |         |                                      |  
 |         |      Na     Na     Na                |  
 |         |                                      |  
 |         .--------------------------------------.  
 |        /                                      /   
 |       /                                      /    
 |      /                                      /     
 |     /                                      /      
 |    /                                      /       
 |   /                                      /        
 |  /                                      /         
 | /                                      /          
 |/                                      /           
 *--------------------------------------*            

Positions:
   0 Na     5.502821    6.167173    6.520787    ( 0.0000,  0.0000,  0.0000)
   1 Na     8.554987    5.331866    6.931817    ( 0.0000,  0.0000,  0.0000)
   2 Na    10.615143    7.767364    6.038322    ( 0.0000,  0.0000,  0.0000)
   3 Na     9.012141   10.719686    6.720022    ( 0.0000,  0.0000,  0.0000)
   4 Na     6.168889    9.292022    7.599364    ( 0.0000,  0.0000,  0.0000)
   5 Na     6.103903    7.601532   10.310309    ( 0.0000,  0.0000,  0.0000)
   6 Na     9.049335    8.129821    8.876181    ( 0.0000,  0.0000,  0.0000)

Unit cell:
           periodic     x           y           z      points  spacing
  1. axis:    no    16.000000    0.000000    0.000000    64     0.2500
  2. axis:    no     0.000000   16.000000    0.000000    64     0.2500
  3. axis:    no     0.000000    0.000000   16.000000    64     0.2500

  Lengths:  16.000000  16.000000  16.000000
  Angles:   90.000000  90.000000  90.000000

Effective grid spacing dv^(1/3) = 0.2500

                     log10-error:    total        iterations:
           time      wfs    density  energy       fermi  poisson
iter:   1  16:42:30  -1.32   +inf    -6.064859    2      1      
iter:   2  16:42:32  -2.18  -2.11    -6.065053    2      1      
iter:   3  16:42:34  -2.82  -2.24    -6.065041    2      1      
iter:   4  16:42:36  -3.33  -2.63    -6.065067    2      1      
iter:   5  16:42:38  -3.78  -2.84    -6.065080    2      1      
iter:   6  16:42:40  -4.21  -3.09    -6.065085    2      1      
iter:   7  16:42:41  -4.65  -3.46    -6.065086    2      1      
iter:   8  16:42:43  -5.04  -3.74    -6.065087    2      1      
iter:   9  16:42:45  -5.42  -4.04    -6.065087    2      1      
iter:  10  16:42:47  -5.79  -4.13    -6.065087    1      1      
iter:  11  16:42:49  -6.11  -4.28    -6.065087    2      1      
iter:  12  16:42:51  -6.48  -4.75    -6.065087    1      1      
iter:  13  16:42:53  -6.79  -4.78    -6.065087    1      1      
iter:  14  16:42:55  -7.15  -5.11    -6.065087    1      1      
iter:  15  16:42:56  -7.48  -5.24    -6.065087    1      1      

Converged after 15 iterations.

Dipole moment: (-0.012054, 0.025780, 0.019004) |e|*Ang

Energy contributions relative to reference atoms: (reference = -30790.959854)

Kinetic:        +13.697366
Potential:      -12.205442
External:        +0.000000
XC:              -7.514836
Entropy (-ST):   -0.069764
Local:           -0.007293
--------------------------
Free energy:     -6.099969
Extrapolated:    -6.065087

Fermi level: -2.72830

 Band  Eigenvalues  Occupancy
    0     -4.51161    2.00000
    1     -3.37209    1.99999
    2     -3.10627    1.99896
    3     -2.72840    1.00105
    4     -1.94437    0.00000
    5     -1.79233    0.00000
    6     -1.61710    0.00000
    7     -1.39405    0.00000
    8     -1.22272    0.00000
    9     -1.04494    0.00000

Gap: 0.784 eV
Transition (v -> c):
  (s=0, k=0, n=3, [0.00, 0.00, 0.00]) -> (s=0, k=0, n=4, [0.00, 0.00, 0.00])

Forces in eV/Ang:
  0 Na    0.00866    0.03084    0.07519
  1 Na    0.02714   -0.03047    0.03276
  2 Na   -0.04689   -0.00612   -0.02322
  3 Na    0.01977    0.02562    0.00316
  4 Na   -0.01272    0.06875   -0.06446
  5 Na   -0.00382   -0.08963   -0.05692
  6 Na    0.00570   -0.00013    0.03243

System changes: positions 

Initializing position-dependent things.

Density initialized from wave functions
           .--------------------------------------.  
          /|                                      |  
         / |                                      |  
        /  |                                      |  
       /   |                                      |  
      /    |                                      |  
     /     |                                      |  
    /      |                                      |  
   /       |                                      |  
  /        |                                      |  
 *         |                                      |  
 |         |                                      |  
 |         |         Na                           |  
 |         |                                      |  
 |         |                Na                    |  
 |         |          Na      Na                  |  
 |         |                                      |  
 |         |                                      |  
 |         |      Na     Na     Na                |  
 |         |                                      |  
 |         .--------------------------------------.  
 |        /                                      /   
 |       /                                      /    
 |      /                                      /     
 |     /                                      /      
 |    /                                      /       
 |   /                                      /        
 |  /                                      /         
 | /                                      /          
 |/                                      /           
 *--------------------------------------*            

Positions:
   0 Na     5.498610    6.169762    6.549339    ( 0.0000,  0.0000,  0.0000)
   1 Na     8.562887    5.320159    6.951704    ( 0.0000,  0.0000,  0.0000)
   2 Na    10.608272    7.768632    6.021176    ( 0.0000,  0.0000,  0.0000)
   3 Na     9.018113   10.742439    6.718822    ( 0.0000,  0.0000,  0.0000)
   4 Na     6.178133    9.319985    7.580281    ( 0.0000,  0.0000,  0.0000)
   5 Na     6.087415    7.566214   10.293369    ( 0.0000,  0.0000,  0.0000)
   6 Na     9.053626    8.123394    8.882110    ( 0.0000,  0.0000,  0.0000)

Unit cell:
           periodic     x           y           z      points  spacing
  1. axis:    no    16.000000    0.000000    0.000000    64     0.2500
  2. axis:    no     0.000000   16.000000    0.000000    64     0.2500
  3. axis:    no     0.000000    0.000000   16.000000    64     0.2500

  Lengths:  16.000000  16.000000  16.000000
  Angles:   90.000000  90.000000  90.000000

Effective grid spacing dv^(1/3) = 0.2500

                     log10-error:    total        iterations:
           time      wfs    density  energy       fermi  poisson
iter:   1  16:42:59  -1.03   +inf    -6.076184    2      1      
iter:   2  16:43:01  -1.89  -1.96    -6.076558    2      1      
iter:   3  16:43:03  -2.54  -2.10    -6.076541    2      1      
iter:   4  16:43:04  -3.03  -2.46    -6.076592    2      1      
iter:   5  16:43:06  -3.49  -2.69    -6.076617    2      1      
iter:   6  16:43:08  -3.91  -2.93    -6.076626    2      1      
iter:   7  16:43:10  -4.35  -3.35    -6.076629    1      1      
iter:   8  16:43:12  -4.72  -3.54    -6.076629    2      1      
