
  ___ ___ ___ _ _ _  
 |   |   |_  | | | | 
 | | | | | . | | | | 
 |__ |  _|___|_____|  19.8.1
 |___|_|             

User:   eliasel@hebbe1
Date:   Fri Feb  5 17:04:52 2021
Arch:   x86_64
Pid:    18375
Python: 3.7.2
gpaw:   /apps/Hebbe7/software/MPI/intel/2019.1.144-GCC-8.2.0-2.31.1/impi/2018.4.274/GPAW/19.8.1-Python-3.7.2/lib/python3.7/site-packages/gpaw
_gpaw:  /apps/Hebbe7/software/MPI/intel/2019.1.144-GCC-8.2.0-2.31.1/impi/2018.4.274/GPAW/19.8.1-Python-3.7.2/lib/python3.7/site-packages/
        _gpaw.cpython-37m-x86_64-linux-gnu.so
ase:    /apps/Hebbe7/software/MPI/intel/2019.1.144-GCC-8.2.0-2.31.1/impi/2018.4.274/ASE/3.18.0-Python-3.7.2/lib/python3.7/site-packages/ase (version 3.18.0)
numpy:  /apps/Hebbe7/software/MPI/intel/2019.1.144-GCC-8.2.0-2.31.1/impi/2018.4.274/SciPy-bundle/2019.03/lib/python3.7/site-packages/numpy (version 1.16.2)
scipy:  /apps/Hebbe7/software/MPI/intel/2019.1.144-GCC-8.2.0-2.31.1/impi/2018.4.274/SciPy-bundle/2019.03/lib/python3.7/site-packages/scipy (version 1.2.1)
libxc:  4.3.4
units:  Angstrom and eV
cores:  1

Input parameters:
  basis: dzp
  h: 0.25
  mode: lcao
  nbands: 10
  occupations: {name: fermi-dirac,
                width: 0.05}
  setups: {Na: 1}

System changes: positions, numbers, cell, pbc, initial_charges, initial_magmoms 

Initialize ...

Na-setup:
  name: Sodium
  id: fa5c50181d04022fed15b2593599c257
  Z: 11
  valence: 1
  core: 10
  charge: 0.0
  file: /apps/Hebbe7/software/Core/GPAW-setups/0.9.20000/Na.1.LDA.gz
  compensation charges: gauss, rc=0.43, lmax=2
  cutoffs: 2.36(filt), 3.60(core),
  valence states:
                energy  radius
    3s(1.00)    -2.819   1.349
    3p(0.00)    -0.774   1.349
    *s          24.392   1.349

  LCAO basis set for Na:
    Name: 1.dzp
    File: /apps/Hebbe7/software/Core/GPAW-setups/0.9.20000/Na.1.dzp.basis.gz
    Number of radial functions: 3
    Number of spherical harmonics: 5
      l=0, rc=11.7656 Bohr: 3s-sz confined orbital
      l=0, rc=7.1094 Bohr: 3s-dz split-valence wave
      l=1, rc=11.7656 Bohr: p-type Gaussian polarization

Reference energy: -26392.251304

Spin-paired calculation

Occupation numbers:
  Fermi-Dirac: width=0.0500 eV

Convergence criteria:
  Maximum total energy change: 0.0005 eV / electron
  Maximum integral of absolute density change: 0.0001 electrons
  Maximum integral of absolute eigenstate change: 4e-08 eV^2
  Maximum number of iterations: 333

Symmetries present (total): 1

  ( 1  0  0)
  ( 0  1  0)
  ( 0  0  1)

1 k-point (Gamma)
1 k-point in the irreducible part of the Brillouin zone
       k-points in crystal coordinates                weights
   0:     0.00000000    0.00000000    0.00000000          1/1

Wave functions: LCAO
  Diagonalizer: Serial LAPACK
  Atomic Correction: dense with blas
  Datatype: float
 

Eigensolver
   LCAO using direct dense diagonalizer 

Densities:
  Coarse grid: 64*64*64 grid
  Fine grid: 128*128*128 grid
  Total Charge: 0.000000 

Density mixing:
  Method: separate
  Backend: pulay
  Linear mixing parameter: 0.25
  Mixing with 3 old densities
  No damping of long wave oscillations 

Hamiltonian:
  XC and Coulomb potentials evaluated on a 128*128*128 grid
  Using the LDA Exchange-Correlation functional
  Interpolation: tri-quintic (5. degree polynomial)
  Poisson solver: FastPoissonSolver using
    6*3+1=19 point O(h^6) finite-difference Laplacian stencil;
    FFT axes: [];
    FST axes: [0, 1, 2].
 

Memory estimate:
  Process memory now: 256.01 MiB
  Calculator: 127.06 MiB
    Density: 80.09 MiB
      Arrays: 50.70 MiB
      Localized functions: 17.94 MiB
      Mixer: 11.45 MiB
    Hamiltonian: 34.46 MiB
      Arrays: 33.16 MiB
      XC: 0.00 MiB
      Poisson: 0.00 MiB
      vbar: 1.29 MiB
    Wavefunctions: 12.52 MiB
      C [qnM]: 0.00 MiB
      S, T [2 x qmm]: 0.01 MiB
      P [aqMi]: 0.00 MiB
      BasisFunctions: 12.50 MiB
      Eigensolver: 0.00 MiB

Total number of cores used: 1

Number of atoms: 6
Number of atomic orbitals: 30
Number of bands in calculation: 10
Bands to converge: occupied states only
Number of valence electrons: 6

... initialized

Initializing position-dependent things.

Density initialized from atomic densities
           .--------------------------------------.  
          /|                                      |  
         / |                                      |  
        /  |                                      |  
       /   |                                      |  
      /    |                                      |  
     /     |                                      |  
    /      |                                      |  
   /       |                                      |  
  /        |                                      |  
 *         |           Na                         |  
 |         |                                      |  
 |         |                Na                    |  
 |         |                                      |  
 |         |            Na                        |  
 |         |                    Na                |  
 |         |                                      |  
 |         |                Na                    |  
 |         |                                      |  
 |         |             Na                       |  
 |         .--------------------------------------.  
 |        /                                      /   
 |       /                                      /    
 |      /                                      /     
 |     /                                      /      
 |    /                                      /       
 |   /                                      /        
 |  /                                      /         
 | /                                      /          
 |/                                      /           
 *--------------------------------------*            

Positions:
   0 Na    11.424955    5.046215    9.661160    ( 0.0000,  0.0000,  0.0000)
   1 Na     9.091214    7.135542   10.719357    ( 0.0000,  0.0000,  0.0000)
   2 Na     6.710298    9.263471   11.516303    ( 0.0000,  0.0000,  0.0000)
   3 Na     7.680133    8.011559    5.125248    ( 0.0000,  0.0000,  0.0000)
   4 Na     9.624253    6.463545    7.292195    ( 0.0000,  0.0000,  0.0000)
   5 Na     7.055205    8.690646    8.283979    ( 0.0000,  0.0000,  0.0000)

Unit cell:
           periodic     x           y           z      points  spacing
  1. axis:    no    16.000000    0.000000    0.000000    64     0.2500
  2. axis:    no     0.000000   16.000000    0.000000    64     0.2500
  3. axis:    no     0.000000    0.000000   16.000000    64     0.2500

  Lengths:  16.000000  16.000000  16.000000
  Angles:   90.000000  90.000000  90.000000

Effective grid spacing dv^(1/3) = 0.2500

                     log10-error:    total        iterations:
           time      wfs    density  energy       fermi  poisson
iter:   1  17:04:56          +inf    -5.137110    1      1      
iter:   2  17:04:57         -0.64    -4.998569    6      1      
iter:   3  17:04:58         -0.84    -4.940656    6      1      
iter:   4  17:05:00         -1.24    -4.933837    3      1      
iter:   5  17:05:01         -2.08    -4.933784    2      1      
iter:   6  17:05:02         -2.32    -4.933793    1      1      
iter:   7  17:05:03         -2.49    -4.933795    2      1      
iter:   8  17:05:04         -3.53    -4.933795    1      1      
iter:   9  17:05:05         -3.75    -4.933795    1      1      
iter:  10  17:05:06         -4.22    -4.933795    1      1      

Converged after 10 iterations.

Dipole moment: (0.000483, -0.001078, 0.002902) |e|*Ang

Energy contributions relative to reference atoms: (reference = -26392.251304)

Kinetic:        +19.193401
Potential:      -17.112915
External:        +0.000000
XC:              -7.035516
Entropy (-ST):   -0.000002
Local:           +0.021236
--------------------------
Free energy:     -4.933796
Extrapolated:    -4.933795

Fermi level: -2.37303

 Band  Eigenvalues  Occupancy
    0     -4.20325    2.00000
    1     -3.13372    2.00000
    2     -3.13203    2.00000
    3     -1.63066    0.00000
    4     -1.55359    0.00000
    5     -1.54922    0.00000
    6      2.06589    0.00000
    7      2.06820    0.00000
    8      2.45416    0.00000
    9      3.37789    0.00000

Gap: 1.501 eV
Transition (v -> c):
  (s=0, k=0, n=2, [0.00, 0.00, 0.00]) -> (s=0, k=0, n=3, [0.00, 0.00, 0.00])
Timing:                              incl.     excl.
-----------------------------------------------------------
Basic WFS set positions:             0.000     0.000   0.0% |
Basis functions set positions:       0.024     0.024   0.2% |
LCAO WFS Initialize:                 0.906     0.051   0.3% |
 Hamiltonian:                        0.856     0.000   0.0% |
  Atomic:                            0.101     0.001   0.0% |
   XC Correction:                    0.100     0.100   0.7% |
  Calculate atomic Hamiltonians:     0.007     0.007   0.0% |
  Communicate:                       0.000     0.000   0.0% |
  Hartree integrate/restrict:        0.031     0.031   0.2% |
  Initialize Hamiltonian:            0.000     0.000   0.0% |
  Poisson:                           0.214     0.014   0.1% |
   Communicate bwd 0:                0.024     0.024   0.2% |
   Communicate bwd 1:                0.015     0.015   0.1% |
   Communicate fwd 0:                0.025     0.025   0.2% |
   Communicate fwd 1:                0.025     0.025   0.2% |
   fft:                              0.032     0.032   0.2% |
   fft2:                             0.078     0.078   0.5% |
  XC 3D grid:                        0.495     0.495   3.4% ||
  vbar:                              0.008     0.008   0.1% |
P tci:                               0.011     0.011   0.1% |
SCF-cycle:                           9.929     0.215   1.5% ||
 Density:                            1.296     0.000   0.0% |
  Atomic density matrices:           0.008     0.008   0.1% |
  Mix:                               0.769     0.769   5.3% |-|
  Multipole moments:                 0.002     0.002   0.0% |
  Normalize:                         0.003     0.003   0.0% |
  Pseudo density:                    0.513     0.006   0.0% |
   Calculate density matrix:         0.001     0.001   0.0% |
   Construct density:                0.505     0.505   3.5% ||
   Symmetrize density:               0.000     0.000   0.0% |
 Hamiltonian:                        7.886     0.001   0.0% |
  Atomic:                            0.968     0.025   0.2% |
   XC Correction:                    0.944     0.944   6.5% |--|
  Calculate atomic Hamiltonians:     0.057     0.057   0.4% |
  Communicate:                       0.000     0.000   0.0% |
  Hartree integrate/restrict:        0.375     0.375   2.6% ||
  Poisson:                           1.935     0.114   0.8% |
   Communicate bwd 0:                0.226     0.226   1.5% ||
   Communicate bwd 1:                0.139     0.139   1.0% |
   Communicate fwd 0:                0.216     0.216   1.5% ||
   Communicate fwd 1:                0.233     0.233   1.6% ||
   fft:                              0.296     0.296   2.0% ||
   fft2:                             0.710     0.710   4.9% |-|
  XC 3D grid:                        4.499     4.499  30.8% |-----------|
  vbar:                              0.051     0.051   0.3% |
 LCAO eigensolver:                   0.531     0.001   0.0% |
  Calculate projections:             0.001     0.001   0.0% |
  DenseAtomicCorrection:             0.003     0.003   0.0% |
  Distribute overlap matrix:         0.000     0.000   0.0% |
  Orbital Layouts:                   0.007     0.007   0.1% |
  Potential matrix:                  0.519     0.519   3.6% ||
ST tci:                              0.003     0.003   0.0% |
Set symmetry:                        0.001     0.001   0.0% |
TCI: Evaluate splines:               0.024     0.024   0.2% |
mktci:                               0.001     0.001   0.0% |
Other:                               3.720     3.720  25.4% |---------|
-----------------------------------------------------------
Total:                                        14.621 100.0%

Date: Fri Feb  5 17:05:07 2021
                                                                                                                                                                                                                                                                                                                                                                                                                                                                                                                                                                                                                                                                                                                                                                                                                                                                                                                                                                                                                                                                                                                                                                                                                                                                                                                                                                                                                                                                                                                                                                                                                                                                                                                                                                                                                                                                                                                                                                                                                                                                                                                                                                                                                                                                                                                                                                                                                                                                                                                                                                                                                                                                                                                                                                                                                                                                                                                                                                                                                                                                                                                                                                                                                                                                                                                                                                                                                                                                                                                                                                                                                                                                                                                                                                                                                                                                                                                                                                                                                                                                                                                                                                                                                                                                                                                                                                                                                                                                                                                                                                                                                                                                                                                                                                                                                                                                                                                                                                                                                                                                                                                                                                                                                                                                                                                                                                                                                                                                                                                                                                                                                                                                                                                                                                                                                                                                                                                                                                                                                                                                                                                                                                                                                                                                                                                                                                                                                                                                                                                                                                                                                                                                                                                                                                                                                                                                                                                                                                                                                                                                                                                                                                                                                                                                                                                                                                                                                                                                                                                                                                                                                                                                                                                                                                                                                                                                                                                                                                                                                                                                                                                                                                                                                                                                                                                                                                                                                                                                                                                                                                                                                                                                                                                                                                                                                                                                                                                                                                                                                                                                                                                                                                                                                                                                                                                                                                                                                                                                                                                                                                                                                                                                                                                                                                                                                                                                                                                                                                                                                                                                                                                                                                                                                                                                                                                                                                                                                                                                                                                                                                                                                                                                                                                                                                                                                                                                                                                                                                                                                                                                                                                                                                                                                                                                                                                                                                                                                                                                                                                                                                                                                                                                                                                                                                                                                                                                                                                                                                                                                                                                                                                                                                                                                                                                                                                                                                                                                                                                                                                                                                                                                                                                                                                                                                                                                                                                                                                                                                                                                                                                                                                                                                                                                                                                                                                                                                                                                                                                                                                                                                                                                                                                                                                                                                                                                                                                                                                                                                                                                                                                                                                                                                                                                                                                                                                                                                                                                                                                                                                                                                                                                                                                                                                                                                                                                                                                                                                                                                                                                                                                                                                                                                                                                                                                                                                                                                                                                                                                                                                                                                                                                                                                                                                                                                                                                                                                                                                                                                                                                                                                                                                                                                                                                                                                                                                                                                                                                                                                                                                                                                                                                                                                                                                                                                                                                                                                                                                                                                                                                                                                                                                                                                                                                                                                                                                                                                                                                                                                                                                                                                                                                                                                                                                                                                                                                                                                                                                                                                                                                                                                                                                                                                                                                                                                                                                                                                                                                                                                                                                                                                                                                                                                                                                                                                                                                                                                                                                                                                                                                                                                                                                                                                                                                                                                                                                                                                                                                                                                                                                                                                                                                                                                                                                                                                                                                                                                                                                                                                                                                                                                                                                                                                                                                                                                                                                                                                                                                                                                                                                                                                                                                                                                                                                                                                                                                                                                                                                                                                                                                                                                                                                                                                                                                                                                                                                                                                                                                                                                                                                                                                                                                                                                                                                                                                                                                                                                                                                                                                                                                                                                                                                                                                                                                                                                                                                                                                                                                                                                                                                                                                                                                                                                                                                                                                                                                                                                                                                                                                                                                                                                                                                                                                                                                                                                                                                                                                                                                                                                                                                                                                                                                                                                                                                                                                                                                                                                                                                                                                                                                                                                                                                                                                                                                                                                                                                                                                                                                                                                                                                                                                                                                                                                                                                                                                                                                                                                                                                                                                                                                                                                                                                                                                                                                                                                                                                                                                                                                                                                                                                                                                                                                                                                                                                                                                                                                                                                                                                                                                                                                                                                                                                                                                                                                                                                                                                                                                                                                                                                                                                                                                                                                                                                                                                                                                                                                                                                                                                                                                                                                                                                                                                                                                                                                                                                                                                                                                                                                                                                                                                                                                                                                                                                                                                                                                                                                                                                                                                                                                                                                                                                                                                                                                                                                                                                                                                                                                                                                                                                                                                                                                                                                                                                                                                                                                                                                                                                                                                                                                                                                                                                                                                                                                                                                                                                                                                                                                                                                                                                                                                                                                                                                                                                                                                                                                                                                                                                                                                                                                                                                                                                                                                                                                                                                                                                                                                                                                                                                                                                                                                                                                                                                                                                                                                                                                                                                                                                                                                                                                                                                                                                                                                                                                                                                                                                                                                                                                                                                                                                                                                                                                                                                                                                                                                                                                                                                                                                                                                                                                                                                                                                                                                                                                                                                                                                                                                                                                                                                                                                                                                                                                                                                                                                                                                                                                                                                                                                                                                                                                                                                                                                                                                                                                                                                                                                                                                                                                                                                                                                                                                                                                                                                                                                                                                                                                                                                                                                                                                                                                                                                                                                                                                                                                                                                                                                                                                                                                                                                                                                                                                                                                                                                                                                                                                                                                                                                                                                                                                                                                                                                                                                                                                                                                                                                                                                                                                                                                                                                                                                                                                                                                                                                                                                                                                                                                                                                                                                                                                                                                                                                                                                                                                                                                                                                                                                                                                                                                                                                                                                                                                                                                                                                                                                                                                                                                                                                                                                                                                                                                                                                                                                                                                                                                                                                                                                                                                                                                                                                                                                                                                                                                                                                                                                                                                                                                                                                                                                                                                                                                                                                                                                                                                                                                                                                                                                                                                                                                                                                                                                                                                                                                                                                                                                                                                                                                                                                                                                                                                                                                                                                                                                                                                                                                                                                                                                                                                                                                                                                                                                                                                                                                                                                                                                                                                                                                                                                                                                                                                                                                                                                                                                                                                                                                                                                                                                                                                                                                                                                                                                                                                                                                                                                                                                                                                                                                                                                                                                                                                                                                                                                                                                                                                                                                                                                                                                                                                                                                                                                                                                                                                                                                                                                                                                                                                                                                                                                                                                                                                                                                                                                                                                                                                                                                                                                                                                                                                                                                                                                                                                                                                                                                                                                                                                                                                                                                                                                                                                                                                                                                                                                                                                                                                                                                                                                                                                                                                                                                                                                                                                                                                                                                                                                                                                                                                                                                                                                                                                                                                                                                                                                                                                                                                                                                                                                                                                                                                                                                                                                                                                                                                                                                                                                                                                                                                                                                                                                                                                                                                                                                                                                                                                                                                                                                                                                                                                                                                                                                                                                                                                                                                                                                                                                                                                                                                                                                                                                                                                                                                                                                                                                                                                                                                                                                                                                                                                                                                                                                                                                                                                                                                                                                                                                                                                                                                                                                                                                                                                                                                                                                                                                                                                                                                                                                                                                                                                                                                                                                                                                                                                                                                                                                                                                                                                                                                                                                                                                                                                                                                                                                                                                                                                                                                                                                                                                                                                                                                                                                                                                                                                                                                                                                                                                                                                                                                                                                                                                                                                                                                                                                                                                                                                                                                                                                                                                                                                                                                                                                                                                                                                                                                                                                                                                                                                                                                                                                                                                                                                                                                                                                                                                                                                                                                                                                                                                                                                                                                                                                                                                                                                                                                                                                                                                                                                                                                                                                                                                                                                                                                                                                                                                                                                                                                                                                                                                                                                                                                                                                                                                                                                                                                                                                                                                                                                                                                                                                                                                                                                                                                                                                                                                                                                                                                                                                                                                                                                                                                                                                                                                                                                                                                                                                                                                                                                                                                                                                                                                                                                                                                                                                                                                                                                                                                                                                                                                                                                                                                                                                                                                                                                                                                                                                                                                                                                                                                                                                                                                                                                                                                                                                                                                                                                                                                                                                                                                                                                                                                                                                                                                                                                                                                                                                                                                                                                                                                                                                                                                                                                                                                                                                                                                                                                                                                                                                                                                                                                                                                                                                                                                                                                                                                                                                                                                                                                                                                                                                                                                                                                                                                                                                                                                                                                                                                                                                                                                                                                                                                                                                                                                                                                                                                                                                                                                                                                                                                                                                                                                                                                                                                                                                                                                                                                                                                                                                                                                                                                                                                                                                                                                                                                                                                                                                                                                                                                                                                                                                                                                                                                                                                                                                                                                                                                                                                                                                                                                                                                                                                                                                                                                                                                                                                                                                                                                                                                                                                                                                                                                                                                                                                                                                                                                                                                                                                                                                                                                                                                                                                                                                                                                                                                                                                                                                                                                                                                                                                                                                                                                                                                                                                                                                                                                                                                                                                                                                                                                                                                                                                                                                                                                                                                                                                                                                                                                                                                                                                                                                                                                                                                                                                                                                                                                                                                                                                                                                                                                                                                                                                                                                                                                                                                                                                                                                                                                                                                                                                                                                                                                                                                                                                                                                                                                                                                                                                                                                                                                                                                                                                                                                                                                                                                                                                                                                                                                                                                                                                                                                                                                                                                                                                                                                                                                                                                                                                                                                                                                                                                                                                                                                                                                                                                                                                                                                                                                                                                                                                                                                                                                                                                                                                                                                                                                                                                                                                                                                                                                                                                                                                                                                                                                                                                                                                                                                                                                                                                                                                                                                                                                                                                                                                                                                                                                                                                                                                                                                                                                                                                                                                                                                                                                                                                                                                                                                                                                                                                                                                                                                                                                                                                                                                                                                                                                                                                                                                                                                                                                                                                                                                                                                                                                                                                                                                                                                                                                                                                                                                                                                                                                                                                                                                                                                                                                                                                                                                                                                                                                                                                                                                                                                                                                                                                                                                                                                                                                                                                                                                                                                                                                                                                                                                                                                                                                                                                                                                                                                                                                                                                                                                                                                                                                                                                                                                                                                                                                                                                                                                                                                                                                                                                                                                                                                                                                                                                                                                                                                                                                                                                                                                                                                                                                                                                                                                                                                                                                                                                                                                                                                                                                                                                                                                                                                                                                                                                                                                                                                                                                                                                                                                                                                                                                                                                                                                                                                                                                                                    
[...]
           .--------------------------------------.  
          /|                                      |  
         / |                                      |  
        /  |                                      |  
       /   |                                      |  
      /    |                                      |  
     /     |                                      |  
    /      |                                      |  
   /       |                                      |  
  /        |                                      |  
 *         |                                      |  
 |         |                                      |  
 |         |                                      |  
 |         |                                      |  
 |         |        NaNa    Na                    |  
 |         |                  Na                  |  
 |         |                                      |  
 |         |              Na                      |  
 |         |        Na       Na                   |  
 |         |                                      |  
 |         .--------------------------------------.  
 |        /                                      /   
 |       /                                      /    
 |      /                                      /     
 |     /                                      /      
 |    /                                      /       
 |   /                                      /        
 |  /                                      /         
 | /                                      /          
 |/                                      /           
 *--------------------------------------*            

Positions:
   0 Na     6.268666    6.661231    6.371030    ( 0.0000,  0.0000,  0.0000)
   1 Na     8.791296    5.065049    7.832510    ( 0.0000,  0.0000,  0.0000)
   2 Na     9.503184    7.551101    5.659013    ( 0.0000,  0.0000,  0.0000)
   3 Na     9.167621   10.769049    6.733216    ( 0.0000,  0.0000,  0.0000)
   4 Na     6.142863    9.726357    7.770381    ( 0.0000,  0.0000,  0.0000)
   5 Na     6.076759    6.972872    9.702593    ( 0.0000,  0.0000,  0.0000)
   6 Na     9.072884    8.271786    8.938672    ( 0.0000,  0.0000,  0.0000)

Unit cell:
           periodic     x           y           z      points  spacing
  1. axis:    no    16.000000    0.000000    0.000000    64     0.2500
  2. axis:    no     0.000000   16.000000    0.000000    64     0.2500
  3. axis:    no     0.000000    0.000000   16.000000    64     0.2500

  Lengths:  16.000000  16.000000  16.000000
  Angles:   90.000000  90.000000  90.000000

Effective grid spacing dv^(1/3) = 0.2500

                     log10-error:    total        iterations:
           time      wfs    density  energy       fermi  poisson
iter:   1  17:08:21  -2.17   +inf    -6.377641    3      1      
iter:   2  17:08:23  -3.17  -2.11    -6.377326    2      1      
iter:   3  17:08:25  -3.87  -2.57    -6.377312    2      1      
iter:   4  17:08:26  -3.67  -2.74    -6.377313    2      1      
iter:   5  17:08:28  -4.44  -3.23    -6.377314    2      1      
iter:   6  17:08:30  -5.19  -3.34    -6.377315    2      1      
iter:   7  17:08:32  -5.61  -3.65    -6.377315    2      1      
iter:   8  17:08:34  -5.86  -3.75    -6.377315    2      1      
iter:   9  17:08:36  -6.17  -4.37    -6.377315    2      1      
iter:  10  17:08:38  -6.59  -4.58    -6.377315    1      1      
iter:  11  17:08:39  -6.71  -4.55    -6.377315    2      1      
iter:  12  17:08:41  -7.27  -4.31    -6.377315    2      1      
iter:  13  17:08:43  -7.74  -5.05    -6.377315    1      1      

Converged after 13 iterations.

Dipole moment: (0.005256, -0.011390, -0.005685) |e|*Ang

Energy contributions relative to reference atoms: (reference = -30790.959854)

Kinetic:        +14.119279
Potential:      -12.462812
External:        +0.000000
XC:              -7.990983
Entropy (-ST):   -0.070014
Local:           -0.007791
--------------------------
Free energy:     -6.412322
Extrapolated:    -6.377315

Fermi level: -2.76498

 Band  Eigenvalues  Occupancy
    0     -4.64353    2.00000
    1     -3.31129    1.99996
    2     -3.11911    1.99832
    3     -2.76515    1.00171
    4     -1.86055    0.00000
    5     -1.75353    0.00000
    6     -1.56857    0.00000
    7     -1.34575    0.00000
    8     -1.25273    0.00000
    9     -1.11466    0.00000

Gap: 0.905 eV
Transition (v -> c):
  (s=0, k=0, n=3, [0.00, 0.00, 0.00]) -> (s=0, k=0, n=4, [0.00, 0.00, 0.00])

Forces in eV/Ang:
  0 Na    0.01655    0.01938    0.00239
  1 Na    0.00007    0.00981    0.00977
  2 Na    0.02235   -0.00600   -0.00224
  3 Na   -0.00560   -0.02886   -0.01747
  4 Na   -0.00382    0.01783    0.03753
  5 Na   -0.01561   -0.01932   -0.00311
  6 Na   -0.01395    0.00699   -0.02343

System changes: positions 

Initializing position-dependent things.

Density initialized from wave functions
           .--------------------------------------.  
          /|                                      |  
         / |                                      |  
        /  |                                      |  
       /   |                                      |  
      /    |                                      |  
     /     |                                      |  
    /      |                                      |  
   /       |                                      |  
  /        |                                      |  
 *         |                                      |  
 |         |                                      |  
 |         |                                      |  
 |         |                                      |  
 |         |        NaNa    Na                    |  
 |         |                  Na                  |  
 |         |                                      |  
 |         |              Na                      |  
 |         |        Na       Na                   |  
 |         |                                      |  
 |         .--------------------------------------.  
 |        /                                      /   
 |       /                                      /    
 |      /                                      /     
 |     /                                      /      
 |    /                                      /       
 |   /                                      /        
 |  /                                      /         
 | /                                      /          
 |/                                      /           
 *--------------------------------------*            

Positions:
   0 Na     6.273630    6.665418    6.373490    ( 0.0000,  0.0000,  0.0000)
   1 Na     8.792010    5.066984    7.834348    ( 0.0000,  0.0000,  0.0000)
   2 Na     9.501288    7.548157    5.659078    ( 0.0000,  0.0000,  0.0000)
   3 Na     9.169360   10.769003    6.730172    ( 0.0000,  0.0000,  0.0000)
   4 Na     6.140821    9.723353    7.777321    ( 0.0000,  0.0000,  0.0000)
   5 Na     6.077762    6.974231    9.695706    ( 0.0000,  0.0000,  0.0000)
   6 Na     9.068455    8.270134    8.937712    ( 0.0000,  0.0000,  0.0000)

Unit cell:
           periodic     x           y           z      points  spacing
  1. axis:    no    16.000000    0.000000    0.000000    64     0.2500
  2. axis:    no     0.000000   16.000000    0.000000    64     0.2500
  3. axis:    no     0.000000    0.000000   16.000000    64     0.2500

  Lengths:  16.000000  16.000000  16.000000
  Angles:   90.000000  90.000000  90.000000

Effective grid spacing dv^(1/3) = 0.2500

                     log10-error:    total        iterations:
           time      wfs    density  energy       fermi  poisson
iter:   1  17:08:46  -2.32   +inf    -6.377921    3      1      
iter:   2  17:08:48  -3.32  -2.20    -6.377723    2      1      
iter:   3  17:08:50  -4.02  -2.65    -6.377714    2      1      
iter:   4  17:08:52  -3.84  -2.82    -6.377716    2      1      
iter:   5  17:08:53  -4.61  -3.31    -6.377717    2      1      
iter:   6  17:08:55  -5.35  -3.42    -6.377717    2      1      
iter:   7  17:08:57  -5.74  -3.74    -6.377717    2      1      
iter:   8  17:08:59  -6.02  -3.84    -6.377718    2      1      
iter:   9  17:09:01  -6.34  -4.44    -6.377718    1      1      
iter:  10  17:09:03  -6.76  -4.64    -6.377718    1      1      
iter:  11  17:09:05  -7.07  -4.63    -6.377718    1      1      
iter:  12  17:09:06  -7.50  -4.52    -6.377718    2      1      

Converged after 12 iterations.

Dipole moment: (0.005857, -0.010198, -0.006358) |e|*Ang

Energy contributions relative to reference atoms: (reference = -30790.959854)

Kinetic:        +14.258616
Potential:      -12.571341
External:        +0.000000
XC:              -8.022222
Entropy (-ST):   -0.069973
Local:           -0.007784
--------------------------
Free energy:     -6.412704
Extrapolated:    -6.377718

Fermi level: -2.76437

 Band  Eigenvalues  Occupancy
    0     -4.64733    2.00000
    1     -3.31051    1.99996
    2     -3.12203    1.99844
    3     -2.76453    1.00160
    4     -1.86078    0.00000
    5     -1.75173    0.00000
    6     -1.56945    0.00000
    7     -1.34380    0.00000
    8     -1.25287    0.00000
    9     -1.11323    0.00000

Gap: 0.904 eV
Transition (v -> c):
  (s=0, k=0, n=3, [0.00, 0.00, 0.00]) -> (s=0, k=0, n=4, [0.00, 0.00, 0.00])

Forces in eV/Ang:
  0 Na    0.01338    0.01771   -0.00323
  1 Na    0.00078    0.00546    0.01053
  2 Na    0.02525   -0.00320   -0.00400
  3 Na   -0.00863   -0.03191   -0.01575
  4 Na   -0.00228    0.02576    0.03349
  5 Na   -0.01911   -0.02473    0.00587
  6 Na   -0.00947    0.01083   -0.02330

System changes: positions 

Initializing position-dependent things.

Density initialized from wave functions
           .--------------------------------------.  
          /|                                      |  
         / |                                      |  
        /  |                                      |  
       /   |                                      |  
      /    |                                      |  
     /     |                                      |  
    /      |                                      |  
   /       |                                      |  
  /        |                                      |  
 *         |                                      |  
 |         |                                      |  
 |         |                                      |  
 |         |                                      |  
 |         |        NaNa    Na                    |  
 |         |                  Na                  |  
 |         |                                      |  
 |         |              Na                      |  
 |         |        Na       Na                   |  
 |         |                                      |  
 |         .--------------------------------------.  
 |        /                                      /   
 |       /                                      /    
 |      /                                      /     
 |     /                                      /      
 |    /                                      /       
 |   /                                      /        
 |  /                                      /         
 | /                                      /          
 |/                                      /           
 *--------------------------------------*            

Positions:
   0 Na     6.278873    6.669639    6.375020    ( 0.0000,  0.0000,  0.0000)
   1 Na     8.792928    5.068296    7.836705    ( 0.0000,  0.0000,  0.0000)
   2 Na     9.499232    7.545377    5.658666    ( 0.0000,  0.0000,  0.0000)
   3 Na     9.170749   10.768403    6.727088    ( 0.0000,  0.0000,  0.0000)
   4 Na     6.138985    9.721511    7.784344    ( 0.0000,  0.0000,  0.0000)
   5 Na     6.078342    6.974901    9.689614    ( 0.0000,  0.0000,  0.0000)
   6 Na     9.064285    8.269005    8.936822    ( 0.0000,  0.0000,  0.0000)

Unit cell:
           periodic     x           y           z      points  spacing
  1. axis:    no    16.000000    0.000000    0.000000    64     0.2500
  2. axis:    no     0.000000   16.000000    0.000000    64     0.2500
  3. axis:    no     0.000000    0.000000   16.000000    64     0.2500

  Lengths:  16.000000  16.000000  16.000000
  Angles:   90.000000  90.000000  90.000000

Effective grid spacing dv^(1/3) = 0.2500

                     log10-error:    total        iterations:
           time      wfs    density  energy       fermi  poisson
iter:   1  17:09:09  -2.39   +inf    -6.378150    2      1      
iter:   2  17:09:11  -3.36  -2.28    -6.378021    2      1      
iter:   3  17:09:13  -4.06  -2.69    -6.378015    2      1      
iter:   4  17:09:15  -3.94  -2.87    -6.378018    2      1      
iter:   5  17:09:17  -4.72  -3.35    -6.378018    2      1      
iter:   6  17:09:18  -5.40  -3.47    -6.378019    2      1      
iter:   7  17:09:20  -5.69  -3.80    -6.378019    2      1      
iter:   8  17:09:22  -6.11  -3.90    -6.378019    2      1      
iter:   9  17:09:24  -6.49  -4.39    -6.378019    1      1      
iter:  10  17:09:26  -6.89  -4.55    -6.378019    1      1      
iter:  11  17:09:28  -7.31  -4.71    -6.378019    1      1      
iter:  12  17:09:29  -7.71  -5.12    -6.378019    1      1      

Converged after 12 iterations.

Dipole moment: (0.006303, -0.009375, -0.006869) |e|*Ang

Energy contributions relative to reference atoms: (reference = -30790.959854)

Kinetic:        +14.374765
Potential:      -12.661595
External:        +0.000000
XC:              -8.048359
Entropy (-ST):   -0.069939
Local:           -0.007860
--------------------------
Free energy:     -6.412988
Extrapolated:    -6.378019

Fermi level: -2.76375

 Band  Eigenvalues  Occupancy
    0     -4.65053    2.00000
    1     -3.30975    1.99996
    2     -3.12459    1.99853
    3     -2.76390    1.00150
    4     -1.86087    0.00000
    5     -1.75037    0.00000
    6     -1.57033    0.00000
    7     -1.34196    0.00000
    8     -1.25292    0.00000
    9     -1.11197    0.00000

Gap: 0.903 eV
Transition (v -> c):
  (s=0, k=0, n=3, [0.00, 0.00, 0.00]) -> (s=0, k=0, n=4, [0.00, 0.00, 0.00])

Forces in eV/Ang:
  0 Na    0.01032    0.01627   -0.00761
  1 Na    0.00110    0.00220    0.01092
  2 Na    0.02832   -0.00094   -0.00539
  3 Na   -0.01125   -0.03429   -0.01435
  4 Na   -0.00117    0.03233    0.02990
  5 Na   -0.02201   -0.02933    0.01342
  6 Na   -0.00568    0.01381   -0.02318

Timing:                                      incl.     excl.
-------------------------------------------------------------------
Density initialized from wave functions:     8.218     8.216   0.3% |
 Symmetrize density:                         0.002     0.002   0.0% |
Forces:                                     15.586    15.586   0.5% |
Hamiltonian:                               100.837     0.013   0.0% |
 Atomic:                                    12.711     0.111   0.0% |
  XC Correction:                            12.600    12.600   0.4% |
 Calculate atomic Hamiltonians:              0.844     0.844   0.0% |
 Communicate:                                0.001     0.001   0.0% |
 Hartree integrate/restrict:                 4.477     4.477   0.1% |
 Initialize Hamiltonian:                     0.000     0.000   0.0% |
 Poisson:                                   27.235     1.870   0.1% |
  Communicate bwd 0:                         2.999     2.999   0.1% |
  Communicate bwd 1:                         1.775     1.775   0.1% |
  Communicate fwd 0:                         3.288     3.288   0.1% |
  Communicate fwd 1:                         3.894     3.894   0.1% |
  fft:                                       3.835     3.835   0.1% |
  fft2:                                      9.573     9.573   0.3% |
 XC 3D grid:                                54.961    54.961   1.8% ||
 vbar:                                       0.595     0.595   0.0% |
LCAO initialization:                         0.094     0.018   0.0% |
 LCAO eigensolver:                           0.026     0.000   0.0% |
  Calculate projections:                     0.000     0.000   0.0% |
  DenseAtomicCorrection:                     0.000     0.000   0.0% |
  Distribute overlap matrix:                 0.000     0.000   0.0% |
  Orbital Layouts:                           0.002     0.002   0.0% |
  Potential matrix:                          0.023     0.023   0.0% |
 LCAO to grid:                               0.023     0.023   0.0% |
 Set positions (LCAO WFS):                   0.026     0.005   0.0% |
  Basic WFS set positions:                   0.000     0.000   0.0% |
  Basis functions set positions:             0.000     0.000   0.0% |
  P tci:                                     0.015     0.015   0.0% |
  ST tci:                                    0.004     0.004   0.0% |
  mktci:                                     0.001     0.001   0.0% |
Redistribute:                                0.061     0.061   0.0% |
SCF-cycle:                                2823.407     6.925   0.2% |
 Davidson:                                1254.617   585.223  19.5% |-------|
  Apply hamiltonian:                       133.404   133.404   4.5% |-|
  Subspace diag:                           161.913     0.197   0.0% |
   calc_h_matrix:                          142.067     8.330   0.3% |
    Apply hamiltonian:                     133.738   133.738   4.5% |-|
   diagonalize:                              0.434     0.434   0.0% |
   rotate_psi:                              19.214    19.214   0.6% |
  calc. matrices:                          334.499    67.962   2.3% ||
   Apply hamiltonian:                      266.537   266.537   8.9% |---|
  diagonalize:                               0.979     0.979   0.0% |
  rotate_psi:                               38.599    38.599   1.3% ||
 Density:                                  119.335     0.036   0.0% |
  Atomic density matrices:                   1.380     1.380   0.0% |
  Mix:                                     111.202   111.202   3.7% ||
  Multipole moments:                         0.365     0.365   0.0% |
  Pseudo density:                            6.352     6.328   0.2% |
   Symmetrize density:                       0.024     0.024   0.0% |
 Hamiltonian:                             1440.368     0.178   0.0% |
  Atomic:                                  182.262     1.599   0.1% |
   XC Correction:                          180.662   180.662   6.0% |-|
  Calculate atomic Hamiltonians:            11.572    11.572   0.4% |
  Communicate:                               0.014     0.014   0.0% |
  Hartree integrate/restrict:               66.979    66.979   2.2% ||
  Poisson:                                 385.676    26.710   0.9% |
   Communicate bwd 0:                       42.788    42.788   1.4% ||
   Communicate bwd 1:                       25.141    25.141   0.8% |
   Communicate fwd 0:                       46.069    46.069   1.5% ||
   Communicate fwd 1:                       53.269    53.269   1.8% ||
   fft:                                     55.151    55.151   1.8% ||
   fft2:                                   136.548   136.548   4.6% |-|
  XC 3D grid:                              785.164   785.164  26.2% |---------|
  vbar:                                      8.523     8.523   0.3% |
 Orthonormalize:                             2.163     0.015   0.0% |
  calc_s_matrix:                             0.628     0.628   0.0% |
  inverse-cholesky:                          0.095     0.095   0.0% |
  projections:                               0.605     0.605   0.0% |
  rotate_psi_s:                              0.820     0.820   0.0% |
Set symmetry:                                0.001     0.001   0.0% |
Other:                                      46.322    46.322   1.5% ||
-------------------------------------------------------------------
Total:                                              2994.525 100.0%

Date: Fri Feb  5 17:09:30 2021
