
  ___ ___ ___ _ _ _  
 |   |   |_  | | | | 
 | | | | | . | | | | 
 |__ |  _|___|_____|  19.8.1
 |___|_|             

User:   eliasel@hebbe06-10
Date:   Fri Feb  5 17:44:34 2021
Arch:   x86_64
Pid:    23778
Python: 3.7.2
gpaw:   /apps/Hebbe7/software/MPI/intel/2019.1.144-GCC-8.2.0-2.31.1/impi/2018.4.274/GPAW/19.8.1-Python-3.7.2/lib/python3.7/site-packages/gpaw
_gpaw:  /apps/Hebbe7/software/MPI/intel/2019.1.144-GCC-8.2.0-2.31.1/impi/2018.4.274/GPAW/19.8.1-Python-3.7.2/lib/python3.7/site-packages/
        _gpaw.cpython-37m-x86_64-linux-gnu.so
ase:    /apps/Hebbe7/software/MPI/intel/2019.1.144-GCC-8.2.0-2.31.1/impi/2018.4.274/ASE/3.18.0-Python-3.7.2/lib/python3.7/site-packages/ase (version 3.18.0)
numpy:  /apps/Hebbe7/software/MPI/intel/2019.1.144-GCC-8.2.0-2.31.1/impi/2018.4.274/SciPy-bundle/2019.03/lib/python3.7/site-packages/numpy (version 1.16.2)
scipy:  /apps/Hebbe7/software/MPI/intel/2019.1.144-GCC-8.2.0-2.31.1/impi/2018.4.274/SciPy-bundle/2019.03/lib/python3.7/site-packages/scipy (version 1.2.1)
libxc:  4.3.4
units:  Angstrom and eV
cores:  1

Input parameters:
  h: 0.25
  mode: pw
  nbands: 10
  occupations: {name: fermi-dirac,
                width: 0.05}
  setups: {Na: 1}

System changes: positions, numbers, cell, pbc, initial_charges, initial_magmoms 

Initialize ...

Na-setup:
  name: Sodium
  id: fa5c50181d04022fed15b2593599c257
  Z: 11
  valence: 1
  core: 10
  charge: 0.0
  file: /apps/Hebbe7/software/Core/GPAW-setups/0.9.20000/Na.1.LDA.gz
  compensation charges: gauss, rc=0.43, lmax=2
  cutoffs: 2.36(filt), 3.60(core),
  valence states:
                energy  radius
    3s(1.00)    -2.819   1.349
    3p(0.00)    -0.774   1.349
    *s          24.392   1.349

  Using partial waves for Na as LCAO basis

Reference energy: -30790.959854

Spin-paired calculation

Occupation numbers:
  Fermi-Dirac: width=0.0500 eV

Convergence criteria:
  Maximum total energy change: 0.0005 eV / electron
  Maximum integral of absolute density change: 0.0001 electrons
  Maximum integral of absolute eigenstate change: 4e-08 eV^2
  Maximum number of iterations: 333

Symmetries present (total): 1

  ( 1  0  0)
  ( 0  1  0)
  ( 0  0  1)

1 k-point (Gamma)
1 k-point in the irreducible part of the Brillouin zone
       k-points in crystal coordinates                weights
   0:     0.00000000    0.00000000    0.00000000          1/1

Wave functions: Plane wave expansion
  Cutoff energy: 340.000 eV
  Number of coefficients: 58077 (reduced to 29039)
  Pulay-stress correction: 0.000000 eV/Ang^3 (de/decut=0.000000)
  Using FFTW library
  ScaLapack parameters: grid=1x1, blocksize=None
  Wavefunction extrapolation:
    Improved wavefunction reuse through dual PAW basis 

Eigensolver
   Davidson(niter=2, smin=None, normalize=True) 

Densities:
  Coarse grid: 64*64*64 grid
  Fine grid: 128*128*128 grid
  Total Charge: 0.000000 

Density mixing:
  Method: separate
  Backend: pulay
  Linear mixing parameter: 0.05
  Mixing with 5 old densities
  Damping of long wave oscillations: 50 

Hamiltonian:
  XC and Coulomb potentials evaluated on a 128*128*128 grid
  Using the LDA Exchange-Correlation functional
 

Memory estimate:
  Process memory now: 171.48 MiB
  Calculator: 176.53 MiB
    Density: 123.30 MiB
      Arrays: 52.00 MiB
      Localized functions: 51.30 MiB
      Mixer: 20.00 MiB
    Hamiltonian: 35.05 MiB
      Arrays: 34.00 MiB
      XC: 0.00 MiB
      Poisson: 0.00 MiB
      vbar: 1.05 MiB
    Wavefunctions: 18.18 MiB
      Arrays psit_nG: 4.43 MiB
      Eigensolver: 6.65 MiB
      Projections: 0.00 MiB
      Projectors: 1.55 MiB
      PW-descriptor: 5.54 MiB

Total number of cores used: 1

Number of atoms: 7
Number of atomic orbitals: 28
Number of bands in calculation: 10
Bands to converge: occupied states only
Number of valence electrons: 7

... initialized

Initializing position-dependent things.

Density initialized from atomic densities
Creating initial wave functions:
  10 bands from LCAO basis set

           .--------------------------------------.  
          /|                                      |  
         / |                                      |  
        /  |                                      |  
       /   |                                      |  
      /    |                                      |  
     /     |                                      |  
    /      |                                      |  
   /       |                                      |  
  /        |                                      |  
 *         |                                      |  
 |         |                                      |  
 |         |                                      |  
 |         |                                      |  
 |         |           Na                         |  
 |         |           Na Na                      |  
 |         |                Naa                   |  
 |         |          Na Na                       |  
 |         |                                      |  
 |         |                                      |  
 |         .--------------------------------------.  
 |        /                                      /   
 |       /                                      /    
 |      /                                      /     
 |     /                                      /      
 |    /                                      /       
 |   /                                      /        
 |  /                                      /         
 | /                                      /          
 |/                                      /           
 *--------------------------------------*            

Positions:
   0 Na     7.000000    7.000000    7.000000    ( 0.0000,  0.0000,  0.0000)
   1 Na     8.000000    7.000000    7.000000    ( 0.0000,  0.0000,  0.0000)
   2 Na     9.000000    8.000000    7.000000    ( 0.0000,  0.0000,  0.0000)
   3 Na     9.000000    9.000000    7.000000    ( 0.0000,  0.0000,  0.0000)
   4 Na     7.000000    8.000000    8.000000    ( 0.0000,  0.0000,  0.0000)
   5 Na     7.000000    8.000000    9.000000    ( 0.0000,  0.0000,  0.0000)
   6 Na     8.000000    8.000000    8.000000    ( 0.0000,  0.0000,  0.0000)

Unit cell:
           periodic     x           y           z      points  spacing
  1. axis:    no    16.000000    0.000000    0.000000    64     0.2500
  2. axis:    no     0.000000   16.000000    0.000000    64     0.2500
  3. axis:    no     0.000000    0.000000   16.000000    64     0.2500

  Lengths:  16.000000  16.000000  16.000000
  Angles:   90.000000  90.000000  90.000000

Effective grid spacing dv^(1/3) = 0.2500

                     log10-error:    total        iterations:
           time      wfs    density  energy       fermi  poisson
iter:   1  17:44:39  +0.98   +inf    66.920672    2             
iter:   2  17:44:40  +0.09  -0.35    66.080201    4             
iter:   3  17:44:41  -0.66  -0.34    65.792874    3             
iter:   4  17:44:43  -0.87  -0.31    66.771796    35            
iter:   5  17:44:44  -2.02  -0.58    66.964266    30            
iter:   6  17:44:46  -2.67  -0.62    66.828482    4             
iter:   7  17:44:47  -2.00  -0.57    67.220872    34            
iter:   8  17:44:49  -3.05  -1.10    67.216225    3             
iter:   9  17:44:50  -3.03  -1.10    67.203944    4             
iter:  10  17:44:51  -3.87  -1.05    67.225254    3             
iter:  11  17:44:53  -3.01  -1.20    67.232389    2             
iter:  12  17:44:54  -3.88  -1.54    67.234317    4             
iter:  13  17:44:56  -4.51  -1.62    67.236300    3             
iter:  14  17:44:57  -4.89  -1.90    67.236271    3             
iter:  15  17:44:58  -5.53  -1.99    67.236306    2             
iter:  16  17:45:00  -4.94  -2.04    67.236659    3             
iter:  17  17:45:01  -5.65  -2.46    67.236733    3             
iter:  18  17:45:03  -6.42  -2.64    67.236753    3             
iter:  19  17:45:04  -5.90  -2.70    67.236805    3             
iter:  20  17:45:05  -6.56  -3.00    67.236809    2             
iter:  21  17:45:07  -7.03  -3.07    67.236807    2             
iter:  22  17:45:08  -7.30  -3.19    67.236805    2             
iter:  23  17:45:10  -7.68  -3.35    67.236802    2             
iter:  24  17:45:11  -8.34  -3.48    67.236801    2             
iter:  25  17:45:12  -8.17  -3.54    67.236802    2             
iter:  26  17:45:14  -9.06  -3.68    67.236801    2             
iter:  27  17:45:15  -8.00  -3.74    67.236800    2             
iter:  28  17:45:17  -8.94  -4.04    67.236800    2             

Converged after 28 iterations.

Dipole moment: (-0.016333, 0.219988, -0.033611) |e|*Ang

Energy contributions relative to reference atoms: (reference = -30790.959854)

Kinetic:       +169.126668
Potential:      -80.989600
External:        +0.000000
XC:             -39.997919
Entropy (-ST):   -0.111853
Local:          +19.153578
--------------------------
Free energy:    +67.180873
Extrapolated:   +67.236800

Fermi level: -3.90547

 Band  Eigenvalues  Occupancy
    0     -6.09464    2.00000
    1     -4.46803    1.99997
    2     -3.97001    1.56857
    3     -3.95163    1.43146
    4     -2.06767    0.00000
    5     -1.67952    0.00000
    6     -1.53820    0.00000
    7     -1.33833    0.00000
    8     -1.06328    0.00000
    9     -0.20967    0.00000

Gap: 1.884 eV
Transition (v -> c):
  (s=0, k=0, n=3, [0.00, 0.00, 0.00]) -> (s=0, k=0, n=4, [0.00, 0.00, 0.00])

Forces in eV/Ang:
  0 Na  -25.65580  -10.29356  -10.16149
  1 Na   17.48854  -16.02437   -9.06137
  2 Na   14.83731  -14.96099   -6.41431
  3 Na    4.94722   26.81394   -3.30491
  4 Na  -24.98017    7.57916  -11.50336
  5 Na   -7.20113    1.45245   30.76330
  6 Na   20.56476    5.43366    9.68299

System changes: positions 

Initializing position-dependent things.

Density initialized from wave functions
           .--------------------------------------.  
          /|                                      |  
         / |                                      |  
        /  |                                      |  
       /   |                                      |  
      /    |                                      |  
     /     |                                      |  
    /      |                                      |  
   /       |                                      |  
  /        |                                      |  
 *         |                                      |  
 |         |                                      |  
 |         |                                      |  
 |         |                                      |  
 |         |           Na                         |  
 |         |           Na Na                      |  
 |         |                Naa                   |  
 |         |          Na Na                       |  
 |         |                                      |  
 |         |                                      |  
 |         .--------------------------------------.  
 |        /                                      /   
 |       /                                      /    
 |      /                                      /     
 |     /                                      /      
 |    /                                      /       
 |   /                                      /        
 |  /                                      /         
 | /                                      /          
 |/                                      /           
 *--------------------------------------*            

Positions:
   0 Na     6.856468    6.942412    6.943151    ( 0.0000,  0.0000,  0.0000)
   1 Na     8.097840    6.910351    6.949306    ( 0.0000,  0.0000,  0.0000)
   2 Na     9.083008    7.916300    6.964115    ( 0.0000,  0.0000,  0.0000)
   3 Na     9.027677    9.150012    6.981511    ( 0.0000,  0.0000,  0.0000)
   4 Na     6.860247    8.042402    7.935644    ( 0.0000,  0.0000,  0.0000)
   5 Na     6.959713    8.008126    9.172107    ( 0.0000,  0.0000,  0.0000)
   6 Na     8.115050    8.030399    8.054172    ( 0.0000,  0.0000,  0.0000)

Unit cell:
           periodic     x           y           z      points  spacing
  1. axis:    no    16.000000    0.000000    0.000000    64     0.2500
  2. axis:    no     0.000000   16.000000    0.000000    64     0.2500
  3. axis:    no     0.000000    0.000000   16.000000    64     0.2500

  Lengths:  16.000000  16.000000  16.000000
  Angles:   90.000000  90.000000  90.000000

Effective grid spacing dv^(1/3) = 0.2500

                     log10-error:    total        iterations:
   iter:  11  17:45:21  -5.28  -3.52    -5.307690    1      1      
iter:  12  17:45:24  -5.74  -3.73    -5.307690    1      1      
iter:  13  17:45:26  -6.21  -4.13    -5.307690    1      1      
iter:  14  17:45:28  -6.66  -4.26    -5.307690    1      1      
iter:  15  17:45:30  -7.11  -4.47    -5.307690    1      1      
iter:  16  17:45:32  -7.62  -5.01    -5.307690    1      1      

Converged after 16 iterations.

Dipole moment: (-0.078746, -0.053495, -0.032532) |e|*Ang

Energy contributions relative to reference atoms: (reference = -26392.251304)

Kinetic:        +11.356032
Potential:      -10.310561
External:        +0.000000
XC:   iter:  10  17:45:33  -4.36  -1.80    43.737908    4             
iter:  11  17:45:34  -4.86  -1.93    43.737965    3             
iter:  12  17:45:36  -4.90  -1.99    43.737878    3             
iter:  13  17:45:37  -5.70  -2.32    43.737855    3             
iter:  14  17:45:39  -5.82  -2.42    43.737857    3             
iter:  15  17:45:40  -6.10  -2.60    43.737870    3             
iter:  16  17:45:42  -6.99  -2.78    43.737884    2             
iter:  17  17:45:43  -6.40  -2.85    43.737906    3             
iter:  18  17:45:44  -7.21  -3.03    43.737902    2             
iter:  19  17:45:46  -7.04  -3.09    43.737900    2             
iter:  20  17:45:47  -7.87  -3.35    43.737902    2             
iter:  21  17:45:49  -8.29  -3.38    43.737904    2             
iter:  22  17:45:50  -8.74  -3.46    43.737903    2             
iter:  23  17:45:52  -7.80  -3.51    43.737905    2             
iter:  24  17:45:53  -8.60  -3.94    43.737904    2             
iter:  25  17:45:55  -9.20  -4.18    43.737904    2             

Converged after 25 iterations.

Dipole moment: (-0.066437, 0.209866, -0.053453) |e|*Ang

Energy contributions relative to reference atoms: (reference = -30790.959854)

Kinetic:       +149.814901
Potential:      -81.405057
External:        +0.000000
XC:             -34.986061
Entropy (-ST):   -0.111760
Local:          +10.370001
--------------------------
Free energy:    +43.682024
Extrapolated:   +43.737904

Fermi level: -3.75741

 Band  Eigenvalues  Occupancy
    0     -5.88804    2.00000
    1     -4.23029    1.99984
    2     -3.82313    1.57646
    3     -3.80263    1.42369
    4     -2.08166    0.00000
    5     -1.71337    0.00000
    6     -1.55924    0.00000
    7     -1.31349    0.00000
    8     -1.07273    0.00000
    9     -0.26558    0.00000

Gap: 1.721 eV
Transition (v -> c):
  (s=0, k=0, n=3, [0.00, 0.00, 0.00]) -> (s=0, k=0, n=4, [0.00, 0.00, 0.00])

Forces in eV/Ang:
  0 Na  -16.15290   -7.77464   -7.77611
  1 Na    8.51204  -13.97809   -6.13934
  2 Na   14.14485   -7.31211   -6.12692
  3 Na    3.00985   17.83621   -2.69563
  4 Na  -16.59359    7.24099   -6.79501
  5 Na   -3.54646    0.40057   19.15610
  6 Na   10.62705    3.58633   10.37717

System changes: positions 

Initializing position-dependent things.

Density initialized from wave functions
           .--------------------------------------.  
          /|                                      |  
         / |                                      |  
        /  |                                      |  
       /   |                                      |  
      /    |                                      |  
     /     |                                      |  
    /      |                                      |  
   /       |                                      |  
  /        |                                      |  
 *         |                                      |  
 |         |                                      |  
 |         |                                      |  
 |         |           Na                         |  
 |         |                                      |  
 |         |           Na Na Na                   |  
 |         |                Na                    |  
 |         |          Na Na                       |  
 |         |                                      |  
 |         |                                      |  
 |         .--------------------------------------.  
 |        /                                      /   
 |       /                                      /    
 |      /                                      /     
 |     /                                      /      
 |    /                                      /       
 |   /                                      /        
 |  /                                      /         
 | /                                      /          
 |/                                      /           
 *--------------------------------------*            

Positions:
   0 Na     6.744384    6.891470    6.892396    ( 0.0000,  0.0000,  0.0000)
   1 Na     8.162710    6.822394    6.907714    ( 0.0000,  0.0000,  0.0000)
   2 Na     9.169999    7.860666    6.926453    ( 0.0000,  0.0000,  0.0000)
   3 Na     9.048806    9.271559    6.964234    ( 0.0000,  0.0000,  0.0000)
   4 Na     6.747118    8.086910    7.887454    ( 0.0000,  0.0000,  0.0000)
   5 Na     6.932810    8.012099    9.305523    ( 0.0000,  0.0000,  0.0000)
   6 Na     8.194182    8.054900    8.116233    ( 0.0000,  0.0000,  0.0000)

Unit cell:
           periodic     x      iter:  13  17:45:59  -5.66  -4.08    -5.254744    1      1      
iter:  14  17:46:01  -6.16  -4.35    -5.254744    1      1      
iter:  15  17:46:04  -6.66  -4.50    -5.254744    1      1      
iter:  16  17:46:06  -7.17  -4.86    -5.254744    1      1      
iter:  17  17:46:08  -7.69  -5.08    -5.254744    1      1      

Converged after 17 iterations.

Dipole moment: (-0.063175, -0.071022, -0.025468) |e|*Ang

Energy contributions relative to reference atoms: (reference = -26392.251304)

Kinetic:        +14.714086
Potential:      -12.929298
External:        +0.000000
XC:              -7.032449
Entropy (-ST):   -0.000124
Local:           -0.007021
--------------------------
Free energy:     -5.254806
Extrapolated:    -5.254744

Fermi level: -2.58475

 Band  Eigenvalues  Occupancy
    0     -4.38986    2.00000
    1     -3.11681    1.99995
    2     -3.10234    1.99994
    3     -2.09504    0.00011
    4     -1.75662    0.00000
    5     -1.68406    0.0iter:   8  17:46:08  -3.88  -1.64    30.474430    4             
iter:   9  17:46:10  -4.33  -1.75    30.475269    4             
iter:  10  17:46:11  -4.93  -2.18    30.475327    3             
iter:  11  17:46:13  -5.58  -2.27    30.475337    3             
iter:  12  17:46:14  -5.40  -2.33    30.475352    3             
iter:  13  17:46:16  -6.25  -2.42    30.475354    2             
iter:  14  17:46:17  -6.56  -2.45    30.475352    3             
iter:  15  17:46:18  -6.48  -2.52    30.475319    3             
iter:  16  17:46:20  -6.27  -2.65    30.475331    3             
iter:  17  17:46:21  -6.48  -2.76    30.475338    2             
iter:  18  17:46:23  -6.99  -2.97    30.475335    3             
iter:  19  17:46:24  -7.26  -3.15    30.475323    2             
iter:  20  17:46:25  -7.96  -3.58    30.475324    2             
iter:  21  17:46:27  -8.72  -3.61    30.475324    2             
iter:  22  17:46:28  -8.16  -3.65    30.475325    2             
iter:  23  17:46:30  -8.93  -4.00    30.475324    2             

Converged after 23 iterations.

Dipole moment: (-0.112233, 0.190409, -0.064724) |e|*Ang

Energy contributions relative to reference atoms: (reference = -30790.959854)

Kinetic:       +140.971334
Potential:      -84.311827
External:        +0.000000
XC:             -32.000300
Entropy (-ST):   -0.112468
Local:           +5.872351
--------------------------
Free energy:    +30.419090
Extrapolated:   +30.475324

Fermi level: -3.63395

 Band  Eigenvalues  Occupancy
    0     -5.84899    2.00000
    1     -3.98960    1.99837
    2     -3.69812    1.56605
    3     -3.68062    1.43557
    4     -2.08877    0.00000
    5     -1.71611    0.00000
    6     -1.55520    0.00000
    7     -1.28987    0.00000
    8     -1.05342    0.00000
    9     -0.33777    0.00000

Gap: 1.592 eV
Transition (v -> c):
  (s=0, k=0, n=3, [0.00, 0.00, 0.00]) -> (s=0, k=0, n=4, [0.00, 0.00, 0.00])

Forces in eV/Ang:
  0 Na  -11.09927   -6.28237   -6.20882
  1 Na    4.39011  -11.96455   -4.44189
  2 Na   12.23389   -3.60632   -5.24794
  3 Na    1.85499   12.61504   -2.25420
  4 Na  -11.58180    6.71505   -3.95581
  5 Na   -2.35077   -0.06639   12.98529
  6 Na    6.55255    2.59012    9.12258

System changes: positions 

Initializing position-dependent things.

Density initialized from wave functions
           .--------------------------------------.  
          /|                                      |  
         / |                                      |  
        /  |                                      |  
       /   |                                      |  
      /    |                                      |  
     /     |                                      |  
    /      |                                      |  
   /       |                                      |  
  /        |                                      |  
 *         |                                      |  
 |         |                                      |  
 |         |                                      |  
 |         |           Na                         |  
 |         |                                      |  
 |         |          Na  Na Na                   |  
 |         |                                      |  
 |         |         Na  Na Na                    |  
 |         |                                      |  
 |         |                                      |  
 |         .--------------------------------------.  
 |        /                                      /   
 |       /                                      /    
 |      /                                      /     
 |     /                                      /      
 |    /                                      /       
 |   /                                      /        
 |  /                                      /         
 | /                                      /          
 |/                                      /           
 *--------------------------------------*            

Positions:
   0 Na     6.642528    6.838630    6.839913    ( 0.0000,  0.0000,  0.0000)
   1 Na     8.210632    6.724894    6.868138    ( 0.0000,  0.0000,  0.0000)
   2 Na     9.268937    7.820260    6.iter:  13  17:46:34  -6.03  -4.14    -5.323880    1      1      
iter:  14  17:46:36  -6.49  -4.46    -5.323880    1      1      
iter:  15  17:46:38  -6.93  -4.65    -5.323880    1      1      
iter:  16  17:46:40  -7.37  -4.87    -5.323880    1      1      
iter:  17  17:46:42  -7.81  -5.23    -5.323880    1      1      

Converged after 17 iterations.

Dipole moment: (-0.077663, -0.089016, -0.030335) |e|*Ang

Energy contributions relative to reference atoms: (reference = -26392.251304)

Kinetic:        +12.188974
Potential:      -10.982463
External:        +0.000000
XC:              -6.523114
Entropy (-ST):   -0.000065
Local:           -0.007244
--------------------------
Free energy:     -5.323912
Extrapolated:    -5.323880

Fermi level: -2.53936

 Band  Eigenvalues  Occupancy
    0     -4.30443    2.00000
    1     -3.10735    1.99998
    2     -3.09310    1.99997
    3     -2.01308    0.00005
    4     -1.75968    0.00000
    5     -1.75115    0.00000
    6     -1.45225    0.00000
    7     -0.91206    0.00000
    8     -0.89904    0.00000
    9     -0.44180    0.00000
   10     -0.43019    0.00000
   11     -0.36797    0.00000
   12     -0.34029    0.00000
   13     -0.19482    0.00000

Gap: 1.080 eV
Transition (v -> c):
  (s=0, k=0, n=2, [0.00, 0.00, 0.00]) -> (s=0, k=0, n=3, [0.00, 0.00, 0.00])

Forces in eV/Ang:
  0 Na   -0.01126   -0.00410   -0.00575
  1 Na    0.00126   -0.01059    0iter:   9  17:46:44  -4.37  -1.87    20.997521    4             
iter:  10  17:46:46  -5.17  -2.20    20.997538    3             
iter:  11  17:46:47  -5.83  -2.44    20.997536    3             
iter:  12  17:46:48  -6.08  -2.47    20.997523    3             
iter:  13  17:46:50  -6.06  -2.51    20.997468    3             
iter:  14  17:46:51  -6.66  -2.84    20.997470    3             
iter:  15  17:46:52  -7.00  -2.95    20.997486    2             
iter:  16  17:46:54  -7.70  -3.14    20.997489    2             
iter:  17  17:46:55  -7.42  -3.22    20.997490    2             
iter:  18  17:46:56  -8.30  -3.59    20.997491    1             
iter:  19  17:46:58  -8.22  -3.65    20.997493    2             
iter:  20  17:46:59  -9.21  -4.00    20.997493    2             

Converged after 20 iterations.

Dipole moment: (-0.143869, 0.155109, -0.076023) |e|*Ang

Energy contributions relative to reference atoms: (reference = -30790.959854)

Kinetic:       +133.141370
Potential:      -85.833068
External:        +0.000000
XC:             -29.471784
Entropy (-ST):   -0.112534
Local:           +3.217242
--------------------------
Free energy:    +20.941226
Extrapolated:   +20.997493

Fermi level: -3.50697

 Band  Eigenvalues  Occupancy
    0     -5.87808    2.00000
    1     -3.81444    1.99574
    2     -3.57589    1.59748
    3     -3.55014    1.40678
    4     -2.11125    0.00000
    5     -1.70291    0.00000
    6     -1.54322    0.00000
    7     -1.28113    0.00000
    8     -1.04280    0.00000
    9     -0.44285    0.00000

Gap: 1.439 eV
Transition (v -> c):
  (s=0, k=0, n=3, [0.00, 0.00, 0.00]) -> (s=0, k=0, n=4, [0.00, 0.00, 0.00])

Forces in eV/Ang:
  0 Na   -7.92563   -4.97715   -4.81907
  1 Na    2.44979   -9.79763   -3.18555
  2 Na    9.89115   -1.83394   -4.24304
  3 Na    1.04592    9.19179   -1.87220
  4 Na   -8.24960    5.94237   -2.52451
  5 Na   -1.83863   -0.33678    9.22251
  6 Na    4.62669    1.81140    7.42191

System changes: positions 

Initializing position-dependent things.

Density initialized from wave functions
           .--------------------------------------.  
          /|                                      |  
         / |                                      |  
        /  |                                      |  
       /   |                                      |  
      /    |                                      |  
     /     |                                      |  
    /      |                                      |  
   /       |                                      |  
  /        |                                      |  
 *         |                                      |  
 |         |                                      |  
 |         |                                      |  
 |         |           Na                         |  
 |         |                                      |  
 |         |          Na  Na Na                   |  
 |         |                                      |  
 |         |         Na  Na  Na                   |  
 |         |                                      |  
 |         |                                      |  
 |         .--------------------------------------.  
 |        /                                      /   
 |       /                                      /    
 |      /                                      /     
 |     /                                      /      
 |    /                                      /       
 |   /                                      /        
 |  /                                      /         
 | /                                      / iter:  11  17:47:04  -6.36  -4.36    -5.324907    1      1      
iter:  12  17:47:06  -6.76  -4.55    -5.324907    1      1      
iter:  13  17:47:08  -7.29  -4.81    -5.324907    1      1      
iter:  14  17:47:10  -7.74  -5.09    -5.324907    1      1      

Converged after 14 iterations.

Dipole moment: (-0.080189, -0.093225, -0.030505) |e|*Ang

Energy contributions relative to reference atoms: (reference = -26392.251304)

Kinetic:        +12.191868
Potential:      -10.988294
External:        +0.000000
XC:              -6.521157
Entropy (-ST):   -0.000055
Local:           -0.007298
--------------------------
Free energy:     -5.324934
Extrapolated:    -5.324907

Fermi level: -2.53118

 Band  Eigenvalues  Occupancy
    0     -4.29932    2.00000
    1     -3.10338    1.99998
    2     -3.09823    1.99998
    3     -1.99538    0.00004
    4     -1.76611    0.00000
    5     -1.75383    0.00000
    6     -1.45453    0.00000
    7     -0.90077    0.00000
    8     -0.89387    0.00000
    9     -0.44952    0.00000
   10     -0.43747    0.00000
   11     -0.37432    0.00000
   12     -0.34857    0.00000
   13     -0.17502    0.00000

Gap: 1.103 eV
Transition (v -> c):
  (s=0, k=0, n=2, [0.00, 0.00, 0.00]) -> (s=0, k=0, n=3, [0.00, 0.00, 0.00])

Forces in eV/Ang:
  0 Na    0.00679    0.00046   -0.00063
  1 Na   -0.00065   -0.00252    0.00093
  2 Na   -0.00618    0.00039    0.00273
  3 Na    0.00533   -0iter:  16  17:47:12  -6.03  -4.33    14.025124    2      1      
iter:  17  17:47:14  -6.41  -4.58    14.025123    2      1      
iter:  18  17:47:16  -6.79  -4.86    14.025124    2      1      
iter:  19  17:47:18  -7.16  -4.98    14.025124    2      1      
iter:  20  17:47:20  -7.53  -5.09    14.025124    2      1      

Converged after 20 iterations.

Dipole moment: (-0.154434, 0.116165, -0.091672) |e|*Ang

Energy contributions relative to reference atoms: (reference = -30790.959854)

Kinetic:       +123.487633
Potential:      -84.033369
External:        +0.000000
XC:             -27.071503
Entropy (-ST):   -0.105632
Local:           +1.695179
--------------------------
Free energy:    +13.972iter:  15  17:47:21  -7.41  -2.96    14.034559    2             
iter:  16  17:47:23  -7.89  -3.08    14.034560    2             
iter:  17  17:47:24  -7.65  -3.15    14.034556    2             
iter:  18  17:47:25  -8.40  -3.41    14.034556    2             
iter:  19  17:47:26  -8.07  -3.50    14.034548    2             
iter:  20  17:47:28  -9.06  -3.72    14.034547    2             
iter:  21  17:47:29  -8.24  -3.76    14.034545    2             
iter:  22  17:47:30  -9.46  -4.17    14.034544    2             

Converged after 22 iterations.

Dipole moment: (-0.153153, 0.116132, -0.085551) |e|*Ang

Energy contributions relative to reference atoms: (reference = -30790.959854)

Kinetic:       +123.520980
Potential:      -84.062407
External:        +0.000000
XC:             -27.074817
Entropy (-ST):   -0.105653
Local:           +1.703615
--------------------------
Free energy:    +13.981718
Extrapolated:   +14.034544

Fermi level: -3.37409

 Band  Eigenvalues  Occupancy
    0     -5.90028    2.00000
    1     -3.71768    1.99793
    2     -3.46797    1.73467
    3     -3.40149    1.26740
    4     -2.12856    0.00000
    5     -1.67561    0.00000
    6     -1.52591    0.00000
    7     -1.28320    0.00000
    8     -1.04157    0.00000
    9     -0.55268    0.00000

Gap: 1.273 eV
Transition (v -> c):
  (s=0, k=0, n=3, [0.00, 0.00, 0.00]) -> (s=0, k=0, n=4, [0.00, 0.00, 0.00])

Forces in eV/Ang:
  0 Na   -5.83105   -3.82666   -3.62699
  1 Na    1.59847   -7.69490   -2.23302
  2 Na    7.68520   -1.11674   -3.37836
  3 Na    0.49662    6.89983   -1.52643
  4 Na   -5.94170    5.02370   -1.89654
  5 Na   -1.58903   -0.47466    6.87096
  6 Na    3.58132    1.18973    5.79044

System changes: positions 

Initializing position-dependent things.

Density initialized from wave functions
           .--------------------------------------.  
          /|                                      |  
         / |                                      |  
        /  |                                      |  
       /   |                                      |  
      /    |                                      |  
     /     |                                      |  
    /      |                                      |  
   /       |                                      |  
  /        |                                      |  
 *         |                                      |  
 |         |                                      |  
 |         |                                      |  
 |         |           Na                         |  
 |         |              Na                      |  
 |         |          Na     Na                   |  
 |         |                                      |  
 |         |         Na  Na  Na                   |  
 |         |                                      |  
 |         |                                      |  
 |         .--------------------------------------.  
 |        /                                      /   
 |       /                                      /    
 |      /                                      /     
 |     /                                      /      
 |    /                                      /       
 |   /                                      /        
 |  /                                      /         
 | /                                      /          
 |/                                      /           
 *--------------------------------------*            

Positions:
   0 Na     6.465263    6.730378    6.734614    ( 0.0000,  0.0000,  0.0000)
   1 Na     8.269561    6.513087    6.797338    ( 0.0000,  0.0000,  0.0000)
   2 Na     9.483688    7.774598    6.791339    ( 0.0000,  0.0000,  0.0000)
   3 Na     9.091431    9.590273    6.905152    ( 0.0000,  0.0000,  0.0000)
   4 Na     6.457520    8.266317    7.788603    ( 0.0000,  0.0000,  0.0000)
   5 Na     6.870089    8.007048    9.632590    ( 0.0000,  0.0000,  0.0000)
   6 Na     8.362452    8.118304    8.350365    ( 0.0000,  0.0000,  0.0000)

Unit cell:
           periodic     x       iter:   7  17:47:34  -2.58  -2.23     8.868018    3      1      
iter:   8  17:47:36  -2.99  -2.54     8.868004    3      1      
iter:   9  17:47:38  -3.39  -2.80     8.867976    2      1      
iter:  10  17:47:39  -3.78  -3.04     8.867993    2      1      
iter:  11  17:47:41  -4.18  -3.35     8.867989    2      1      
iter:  12  17:47:43  -4.57  -3.61     8.867992    2      1      
iter:  13  17:47:45  -4.94  -3.87     8.867988    2      1      
iter:  14  17:47:47  -5.30  -4.15     8.867987    2      1      
iter:  15  17:47:49  -5.67  -4.37     8.867986    2      1      
iter:  16  17:47:51  -6.05  -4.56     8.867986    2      1      
iter:  17  17:47:53  -6.43  -4.75     8.867986    2      1      
iter:  18  17:47:55  -6.80  -5.01     8.867986    1      1      
iter:  19  17:47:57  -7.17  -5.16     8.867986    2      1      
iter:  20  17:47:58  -7.53  -5.35     8.867986    2      1      

Converged after 20 iterations.

Dipole moment: (-0.144828, 0.089676, -0.095306) |e|*Ang

Energy contributions relative to reference atoms: (reference = -30790.959854)

Kinetic:       +112.094216
Potential:      -79.283486
External:        +0.000000
XC:             -24.762239
Entropy (-ST):   -0.091957
Local:           +0.865474
--------------------------
Free energy:     +8.822007
Extrapolated:    +8.867986

Fermi level: -3.45907

 Band  Eigenvalues  Occupancy
    0     -6.08583    2.00000
    1     -3.87359    1.99950
    2     -3.59510    1.87646
    3     -3.47154    1.12404
    4     -2.32961    0.00000
    5     -1.86026    0.00000
    6     -1.72198    0.00000
    7     -1.49905    0.00000
    8     -1.25212    0.00000
    9     -0.83955    0.00000

Gap: 1.142 eV
Transition (v -> c):
  (s=0, k=0, n=3, [0.00, 0.00, 0.00]) -> (s=0, k=0, n=4, [0.00, 0.00, 0.00])

Forces in eV/Ang:
  0 Na   -4.39693   -2.89427   -2.68730
  1 Na    1.19666   -5.88612   -1.51480
  2 Na    5.90004   -0.84182   -2.70989
  3 Na    0.1iter:  23  17:48:02 -10.09  -4.08     8.883652    2             

Converged after 23 iterations.

Dipole moment: (-0.143510, 0.090213, -0.088328) |e|*Ang

Energy contributions relative to reference atoms: (reference = -30790.959854)

Kinetic:       +112.155758
Potential:      -79.330731
External:        +0.000000
XC:             -24.770153
Entropy (-ST):   -0.092031
Local:           +0.874794
--------------------------
Free energy:     +8.837637
Extrapolated:    +8.883652

Fermi level: -3.24142

 Band  Eigenvalues  Occupancy
    0     -5.86817    2.00000
    1     -3.65589    1.99950
    2     -3.37719    1.87586
    3     -3.25395    1.12464
    4     -2.11670    0.00000
    5     -1.64446    0.00000
    6     -1.50650    0.00000
    7     -1.28833    0.00000
    8     -1.04448    0.00000
    9     -0.63947    0.00000

Gap: 1.137 eV
Transition (v -> c):
  (s=0, k=0, n=3, [0.00, 0.00, 0.00]) -> (s=0, k=0, n=4, [0.00, 0.00, 0.00])

Forces in eV/Ang:
  0 Na   -4.40106   -2.89789   -2.69102
  1 Na    1.19943   -5.89200   -1.51584
  2 Na    5.90483   -0.84218   -2.71089
  3 Na    0.13630    5.30027   -1.21790
  4 Na   -4.31220    4.13738   -1.59260
  5 Na   -1.44437   -0.53190    5.31911
  6 Na    2.91669    0.72637    4.40928

System changes: positions 

Initializing position-dependent things.

Density initialized from wave functions
           .--------------------------------------.  
          /|                                      |  
         / |                                      |  
        /  |                                      |  
       /   |                                      |  
      /    |                                      |  
     /     |                                      |  
    /      |                                      |  
   /       |                                      |  
  /        |                                      |  
 *         |                                      |  
 |         |                                      |  
 |         |                                      |  
 |         |           Na                         |  
 |         |               Na                     |  
 |         |          Na     Na                   |  
 |         |                                      |  
 |         |         Na      Na                   |  
 |         |             Na                       |  
 |         |                                      |  
 |         .--------------------------------------.  
 |        /                                      /   
 |       /                                      /    
 |      /                                      /     
 |     /                                      /      
 |    /                                      /       
 |   /                                      /        
 |  /                                      /         
 | /                                      /          
 |/                                      /           
 *--------------------------------------*            

Positions:
   0 Na     6.388286    6.678729    6.685852    ( 0.0000,  0.0000,  0.0000)
   1 Na     8.288926    6.408570    6.768103    ( 0.0000,  0.0000,  0.0000)
   2 Na     9.588337    7.761549  iter:   4  17:48:06  -1.21  -1.38     5.092194    3      1      
iter:   5  17:48:08  -1.53  -1.57     5.091153    3      1      
iter:   6  17:48:10  -1.99  -2.14     5.090736    3      1      
iter:   7  17:48:12  -2.50  -2.28     5.090577    2      1      
iter:   8  17:48:14  -3.02  -2.47     5.090531    3      1      
iter:   9  17:48:16  -3.43  -2.87     5.090512    2      1      
iter:  10  17:48:18  -3.82  -3.12     5.090512    2      1      
iter:  11  17:48:20  -4.21  -3.40     5.090514    2      1      
iter:  12  17:48:22  -4.59  -3.53     5.090518    2      1      
iter:  13  17:48:23  -4.99  -3.75     5.090516    2      1      
iter:  14  17:48:25  -5.37  -4.15     5.090516    2      1      
iter:  15  17:48:27  -5.74  -4.42     5.090515    2      1      
iter:  16  17:48:29  -6.12  -4.79     5.090515    2      1      
iter:  17  17:48:31  -6.50  -4.92     5.090515    2      1      
iter:  18  17:48:33  -6.88  -4.98     5.090515    2      1      
iter:  19  17:48:35  -7.25  -5.13     5.090515    2      1      
iter:  20  17:48:37  -7.62  -5.19     5.090515    2      1      

Converged after 20 iterations.

Dipole moment: (-0.128991, 0.079653, -0.088414) |e|*Ang

Energy contributions relative to reference atoms: (reference = -30790.959854)

Kinetic:       +100.112772
Potential:      -72.812532
External:        +0.000000
XC:             -22.607372
Entropy (-ST):   -0.078624
Local:           +0.436959
--------------------------
Free energy:     +5.051203
Extrapolated:    +5.090515

Fermi level: -3.32771

 Band  Eigenvalues  Occupancy
    0     -5.99443    2.00000
    1     -3.82106    1.99990
    2     -3.52551    1.96244
    3     -3.33147    1.03766
    4     -2.28484    0.00000
    5     -1.83054    0.00000
    6     -1.70270    0.00000
    7     -1.49877    0.00000
    8     -1.25407    0.00000
    9     -0.90130    0.00000

Gap: 1.047 eV
Transition (v -> c):
  (s=0, k=0, n=3, [0.00, 0.00, 0.00]) -> (s=0, k=0, n=4, [0.00, 0.00, 0.00])

Forces in eV/Ang:
  0 Na   -3.41295   -2.20141   -2.00312
  1 Na    0.96444   -4.49803   -0.98636
  2 Na    4.59063   -0.69136   -2.20282
  3 Na   -0.09003    4.14010   -0.95707
  4 Na   -3.15303    3.39011   -1.37326
  5 Na   -1.33943   -0.54707    4.21671
  6 Na    2.44075    0.40738    3.30728

System changes: positions 

Initializing position-dependent things.

Density initialized from wave functions
           .--------------------------------------.  
          /|                                      |  
         / |                                      |  
        /  |                                      |  
       /   |                                      |  
      /    |                                      |  
     /     |                                      |  
    /      |                                      |  
   /       |                                      |  
  /        |                                      |  
 *         |                                      |  
 |         |                                      |  
 |         |                                      |  
 |         |           Na                         |  
 |         |               Na                     |  
 |         |          Na     Na                   |  
 |         |                                      |  
 |         |                 Na                   |  
 |         |         Na  Na                       |  
 |         |                                      |  
 |         .--------------------------------------.  
 |        /                                      /   
 |       /                                      /    
 |      /                                      /     
 |     /                                      /      
 |    /                                      /       
 |   /                                      /        
 |  /                                      /         
 | /                                      /          
 |/                                      /           
 *--------------------------------------*            

Positions:
   0 Na     6.318871    6.631621    6.642314    ( 0.0000,  0.0000,  0.0000)
   1 Na     8.305819    6.312194    6.744306    ( 0.0000,  0.0000,  0.0000)
   2 Na     9.684720    7.750482    6.701038    ( 0.0000,  0.0000,  0.0000)
   3 Na     9.098311    9.765855    6.864540    ( 0.0000,  0.0000,  0.0000)
   4 Na     6.311682    8.404107    7.739978    ( 0.0000,  0.0000,  0.0000)
   5 Na     6.825130    7.990658    9.806949    ( 0.0000,  0.0000,  0.0000)
   6 Na     8.455480    8.145024    8.500971    ( 0.0000,  0.0000,  0.0000)

Unit cell:
           periodic     x           y           z      points  spacing
  1. axis:    no    16.000000    0.000000    0.000000    64     0.2500
  2. axis:    no     0.000000   16.000000    0.000000    64     0.2500
  3. axis:    no     0.000000    0.000000   16.000000    64     0.2500

  Lengths:  16.000000  16.000000  16.000000
  Angles:   90.000000  90.000000  90.000000

Effective grid spacing dv^(1/3) = 0.2500

                     log10-error:    total        iterations:
           time      wfs    density  energy       fermi  poisson
iter:   1  17:48:39  +0.68   +inf     2.329356    33     1      
iter:   2  17:48:41  -0.35  -0.92     2.381546    4      1      
iter:   3  17:48:43  -0.76  -1.12     2.403220    4      1      
iter:   4  17:48:45  -1.34  -1.48     2.401886    3      1      
iter:   5  17:48:47  -1.75  -1.63     2.401130    3      1      
iter:   6  17:48:48  -2.07  -2.17     2.400876    3      1      
iter:   7  17:48:50  -2.46  -2.35     2.400756    2      1      
iter:   8  17:48:52  -3.08  -2.52     2.400751    3      1      
iter:   9  17:48:54  -3.51  -2.94     2.400742    2      1      
iter:  10  17:48:56  -3.87  -3.18     2.400738    2      1      
iter:  11  17:48:58  -4.28  -3.60     2.400738    2      1      
iter:  12  17:49:00  -4.73  -3.73     2.400740    2      1      
iter:  13  17:49:02  -5.10  -4.05     2.400739    2      1      
iter:  14  17:49:04  -5.50  -4.12     2.400739    2      1      
iter:  15  17:49:06  -5.89  -4.33     2.400739    2      1      
iter:  16  17:49:08  -6.15  -4.44     2.400739    2      1      
iter:  17  17:49:10  -6.62  -4.58     2.400739    2      1      
iter:  18  17:49:11  -7.02  -4.95     2.400739    2      1      
iter:  19  17:49:13  -7.40  -5.15     2.400739    2      1      

Converged after 19 iterations.

Dipole moment: (-0.114980, 0.080303, -0.073753) |e|*Ang

Energy contributions relative to reference atoms: (reference = -30790.959854)

Kinetic:        +88.909480
Potential:      -65.992636
External:        +0.000000
XC:             -20.707508
Entropy (-ST):   -0.072487
Local:           +0.227646
--------------------------
Free energy:     +2.364496
Extrapolated:    +2.400739

Fermi level: -3.21277

 Band  Eigenvalues  Occupancy
    0     -5.87201    2.00000
    1     -3.77439    1.99997
    2     -3.47719    1.98995
    3     -3.21378    1.01008
    4     -2.22542    0.00000
    5     -1.80629    0.00000
    6     -1.68870    0.00000
    7     -1.49568    0.00000
    8     -1.25812    0.00000
    9     -0.94240    0.00000

Gap: 0.988 eV
Transition (v -> c):
  (s=0, k=0, n=3, [0.00, 0.00, 0.00]) -> (s=0, k=0, n=4, [0.00, 0.00, 0.00])

Forces in eV/Ang:
  0 Na   -2.74150   -1.71613   -1.53298
  1 Na    0.79772   -3.51603   -0.62006
  2 Na    3.67472   -0.55908   -1.82016
  3 Na   -0.21703    3.29979   -0.75500
  4 Na   -2.34113    2.81323   -1.16557
  5 Na   -1.24781   -0.53803    3.40631
  6 Na    2.07576    0.21295    2.49018

System changes: positions 

Initializing position-dependent things.

Density initialized from wave functions
           .--------------------------------------.  
          /|                                      |  
         / |                                      |  
        /  |                                      |  
       /   |                                      |  
      /    |                                      |  
     /     |                                      |  
    /      |                                      |  
   /       |                                      |  
  /        |                                      |  
 *         |                                      |  
 |         |                                      |  
 |         |                                      |  
 |         |           Na                         |  
 |         |               Na                     |  
 |         |          Na     Na                   |  
 |         |                                      |  
 |         |                  Na                  |  
 |         |        Na   Na                       |  
 |         |                                      |  
 |         .--------------------------------------.  
 |        /                                      /   
 |       /                                      /    
 |      /                                      /     
 |     /                                      /      
 |    /                                      /       
 |   /                                      /        
 |  /                                      /         
 | /                                      /          
 |/                                      /           
 *--------------------------------------*            

Positions:
   0 Na     6.254345    6.588623    6.603394    ( 0.0000,  0.0000,  0.0000)
   1 Na     8.322403    6.223637    6.725331    ( 0.0000,  0.0000,  0.0000)
   2 Na     9.773966    7.739464    6.658533    ( 0.0000,  0.0000,  0.0000)
   3 Na     9.096009    9.844481    6.845656    ( 0.0000,  0.0000,  0.0000)
   4 Na     6.252030    8.471236    7.715059    ( 0.0000,  0.0000,  0.0000)
   5 Na     6.799472    7.979662    9.886309    ( 0.0000,  0.0000,  0.0000)
   6 Na     8.501778    8.152824    8.565819    ( 0.0000,  0.0000,  0.0000)

Unit cell:
           periodic     x           y           z      points  spacing
  1. axis:    no    16.000000    0.000000    0.000000    64     0.2500
  2. axis:    no     0.000000   16.000000    0.000000    64     0.2500
  3. axis:    no     0.000000    0.000000   16.000000    64     0.2500

  Lengths:  16.000000  16.000000  16.000000
  Angles:   90.000000  90.000000  90.000000

Effective grid spacing dv^(1/3) = 0.2500

                     log10-error:    total        iterations:
           time      wfs    density  energy       fermi  poisson
iter:   1  17:49:16  +0.58   +inf     0.295279    33     1      
iter:   2  17:49:18  -0.46  -0.94     0.350208    5      1      
iter:   3  17:49:19  -0.76  -1.14     0.375112    32     1      
iter:   4  17:49:21  -1.43  -1.55     0.373741    2      1      
iter:   5  17:49:23  -1.95  -1.69     0.373105    3      1      
iter:   6  17:49:25  -2.21  -2.16     0.373010    3      1      
iter:   7  17:49:27  -2.45  -2.35     0.372893    2      1      
iter:   8  17:49:29  -2.93  -2.64     0.372850    2      1      
iter:   9  17:49:31  -3.54  -2.80     0.372849    2      1      
iter:  10  17:49:33  -4.07  -2.97     0.372853    2      1      
iter:  11  17:49:35  -4.34  -3.35     0.372852    2      1      
iter:  12  17:49:37  -4.83  -3.47     0.372852    2      1      
iter:  13  17:49:38  -5.23  -3.71     0.372852    2      1      
iter:  14  17:49:40  -5.55  -3.86     0.372852    2      1      
iter:  15  17:49:42  -5.92  -4.50     0.372851    2      1      
iter:  16  17:49:44  -6.32  -4.45     0.372852    2      1      
iter:  17  17:49:46  -6.70  -4.50     0.372852    1      1      
iter:  18  17:49:48  -6.89  -4.48     0.372851    2      1      
iter:  19  17:49:50  -7.33  -4.30     0.372851    1      1      
iter:  20  17:49:52  -7.63  -4.31     0.372852    2      1      

Converged after 20 iterations.

Dipole moment: (-0.103546, 0.084713, -0.055751) |e|*Ang

Energy contributions relative to reference atoms: (reference = -30790.959854)

Kinetic:        +78.543430
Potential:      -59.265241
External:        +0.000000
XC:             -18.989860
Entropy (-ST):   -0.070613
Local:           +0.119828
--------------------------
Free energy:     +0.337545
Extrapolated:    +0.372852

Fermi level: -3.12079

 Band  Eigenvalues  Occupancy
    0     -5.73647    2.00000
    1     -3.73047    1.99999
    2     -3.43783    1.99648
    3     -3.12114    1.00353
    4     -2.16136    0.00000
    5     -1.78334    0.00000
    6     -1.67773    0.00000
    7     -1.49286    0.00000
    8     -1.26429    0.00000
    9     -0.97616    0.00000

Gap: 0.960 eV
Transition (v -> c):
  (s=0, k=0, n=3, [0.00, 0.00, 0.00]) -> (s=0, k=0, n=4, [0.00, 0.00, 0.00])

Forces in eV/Ang:
  0 Na   -2.24513   -1.35734   -1.18954
  1 Na    0.66178   -2.79392   -0.36494
  2 Na    2.98326   -0.42182   -1.51528
  3 Na   -0.28176    2.63883   -0.59359
  4 Na   -1.72418    2.34225   -0.94973
  5 Na   -1.15569   -0.50682    2.74683
  6 Na    1.76222    0.10059    1.86680

System changes: positions 

Initializing position-dependent things.

Density initialized from wave functions
           .--------------------------------------.  
          /|                                      |  
         / |                                      |  
        /  |                                      |  
       /   |                                      |  
      /    |                                      |  
     /     |                                      |  
    /      |                                      |  
   /       |                                      |  
  /        |                                      |  
 *         |                                      |  
 |         |                                      |  
 |         |                                      |  
 |         |          Na                          |  
 |         |               Na                     |  
 |         |         Na      Na                   |  
 |         |                                      |  
 |         |                  Na                  |  
 |         |        Na   Na                       |  
 |         |                                      |  
 |         .--------------------------------------.  
 |        /                                      /   
 |       /                                      /    
 |      /                                      /     
 |     /                                      /      
 |    /                                      /       
 |   /                                      /        
 |  /                                      /         
 | /                                      /          
 |/                                      /           
 *--------------------------------------*            

Positions:
   0 Na     6.193782    6.549571    6.568702    ( 0.0000,  0.0000,  0.0000)
   1 Na     8.339155    6.142959    6.710806    ( 0.0000,  0.0000,  0.0000)
   2 Na     9.856539    7.728180    6.617720    ( 0.0000,  0.0000,  0.0000)
   3 Na     9.090912    9.918149    6.828082    ( 0.0000,  0.0000,  0.0000)
   4 Na     6.199650    8.535917    7.689606    ( 0.0000,  0.0000,  0.0000)
   5 Na     6.771867    7.967434    9.961775    ( 0.0000,  0.0000,  0.0000)
   6 Na     8.548105    8.157710    8.623434    ( 0.0000,  0.0000,  0.0000)

Unit cell:
           periodic     x           y           z      points  spacing
  1. axis:    no    16.000000    0.000000    0.000000    64     0.2500
  2. axis:    no     0.000000   16.000000    0.000000    64     0.2500
  3. axis:    no     0.000000    0.000000   16.000000    64     0.2500

  Lengths:  16.000000  16.000000  16.000000
  Angles:   90.000000  90.000000  90.000000

Effective grid spacing dv^(1/3) = 0.2500

                     log10-error:    total        iterations:
           time      wfs    density  energy       fermi  poisson
iter:   1  17:49:54  +0.49   +inf    -1.225131    33     1      
iter:   2  17:49:56  -0.57  -0.98    -1.175299    32     1      
iter:   3  17:49:58  -0.79  -1.17    -1.151931    33     1      
iter:   4  17:50:00  -1.53  -1.63    -1.153167    2      1      
iter:   5  17:50:02  -2.16  -1.76    -1.153761    2      1      
iter:   6  17:50:04  -2.32  -2.16    -1.153736    3      1      
iter:   7  17:50:06  -2.54  -2.37    -1.153845    2      1      
iter:   8  17:50:07  -2.99  -2.73    -1.153882    2      1      
iter:   9  17:50:09  -3.77  -2.80    -1.153885    3      1      
iter:  10  17:50:11  -3.98  -2.89    -1.153881    2      1      
iter:  11  17:50:13  -4.06  -3.36    -1.153884    2      1      
iter:  12  17:50:15  -4.93  -3.47    -1.153883    2      1      
iter:  13  17:50:17  -5.13  -3.81    -1.153883    2      1      
iter:  14  17:50:19  -5.46  -4.12    -1.153883    2      1      
iter:  15  17:50:21  -6.00  -4.24    -1.153883    2      1      
iter:  16  17:50:23  -6.41  -4.35    -1.153884    2      1      
iter:  17  17:50:25  -6.76  -4.47    -1.153884    2      1      
iter:  18  17:50:26  -7.17  -5.13    -1.153884    1      1      
iter:  19  17:50:28  -7.57  -5.12    -1.153884    2      1      

Converged after 19 iterations.

Dipole moment: (-0.094808, 0.089839, -0.037955) |e|*Ang

Energy contributions relative to reference atoms: (reference = -30790.959854)

Kinetic:        +69.336785
Potential:      -53.048597
External:        +0.000000
XC:             -17.470752
Entropy (-ST):   -0.070049
Local:           +0.063705
--------------------------
Free energy:     -1.188908
Extrapolated:    -1.153884

Fermi level: -3.05303

 Band  Eigenvalues  Occupancy
    0     -5.60106    2.00000
    1     -3.68891    1.99999
    2     -3.40295    1.99818
    3     -3.05321    1.00183
    4     -2.09982    0.00000
    5     -1.76197    0.00000
    6     -1.66844    0.00000
    7     -1.49102    0.00000
    8     -1.27159    0.00000
    9     -1.00616    0.00000

Gap: 0.953 eV
Transition (v -> c):
  (s=0, k=0, n=3, [0.00, 0.00, 0.00]) -> (s=0, k=0, n=4, [0.00, 0.00, 0.00])

Forces in eV/Ang:
  0 Na   -1.86529   -1.09319   -0.93948
  1 Na    0.54412   -2.26809   -0.19403
  2 Na    2.45657   -0.28833   -1.26920
  3 Na   -0.30050    2.11316   -0.46460
  4 Na   -1.25966    1.95304   -0.74395
  5 Na   -1.06210   -0.45861    2.20801
  6 Na    1.48612    0.04526    1.40380

System changes: positions 

Initializing position-dependent things.

Density initialized from wave functions
           .--------------------------------------.  
          /|                                      |  
         / |                                      |  
        /  |                                      |  
       /   |                                      |  
      /    |                                      |  
     /     |                                      |  
    /      |                                      |  
   /       |                                      |  
  /        |                                      |  
 *         |                                      |  
 |         |                                      |  
 |         |          Na                          |  
 |         |                                      |  
 |         |               Na                     |  
 |         |         Na      Na                   |  
 |         |                                      |  
 |         |                  Na                  |  
 |         |        Na   Na                       |  
 |         |                                      |  
 |         .--------------------------------------.  
 |        /                                      /   
 |       /                                      /    
 |      /                                      /     
 |     /                                      /      
 |    /                                      /       
 |   /                                      /        
 |  /                                      /         
 | /                                      /          
 |/                                      /           
 *--------------------------------------*            

Positions:
   0 Na     6.137252    6.514417    6.537980    ( 0.0000,  0.0000,  0.0000)
   1 Na     8.355706    6.070188    6.700191    ( 0.0000,  0.0000,  0.0000)
   2 Na     9.932377    7.717222    6.579129    ( 0.0000,  0.0000,  0.0000)
   3 Na     9.083937    9.986146    6.812144    ( 0.0000,  0.0000,  0.0000)
   4 Na     6.154299    8.596844    7.664777    ( 0.0000,  0.0000,  0.0000)
   5 Na     6.743232    7.954651   10.032297    ( 0.0000,  0.0000,  0.0000)
   6 Na     8.593217    8.160452    8.673646    ( 0.0000,  0.0000,  0.0000)

Unit cell:
           periodic     x           y           z      points  spacing
  1. axis:    no    16.000000    0.000000    0.000000    64     0.2500
  2. axis:    no     0.000000   16.000000    0.000000    64     0.2500
  3. axis:    no     0.000000    0.000000   16.000000    64     0.2500

  Lengths:  16.000000  16.000000  16.000000
  Angles:   90.000000  90.000000  90.000000

Effective grid spacing dv^(1/3) = 0.2500

                     log10-error:    total        iterations:
           time      wfs    density  energy       fermi  poisson
iter:   1  17:50:31  +0.37   +inf    -2.359987    33     1      
iter:   2  17:50:33  -0.70  -1.02    -2.317659    7      1      
iter:   3  17:50:34  -0.85  -1.21    -2.297653    29     1      
iter:   4  17:50:36  -1.65  -1.70    -2.298641    3      1      
iter:   5  17:50:38  -2.38  -1.83    -2.299166    2      1      
iter:   6  17:50:40  -2.38  -2.17    -2.299085    3      1      
iter:   7  17:50:42  -2.71  -2.42    -2.299176    2      1      
iter:   8  17:50:44  -3.18  -2.79    -2.299200    2      1      
iter:   9  17:50:46  -3.94  -2.83    -2.299198    2      1      
iter:  10  17:50:48  -4.36  -3.16    -2.299201    2      1      
iter:  11  17:50:49  -4.40  -3.33    -2.299202    2      1      
iter:  12  17:50:51  -5.11  -3.49    -2.299201    2      1      
iter:  13  17:50:53  -5.57  -3.75    -2.299201    2      1      
iter:  14  17:50:55  -5.64  -4.03    -2.299201    2      1      
iter:  15  17:50:57  -6.31  -4.09    -2.299201    2      1      
iter:  16  17:50:59  -6.66  -4.38    -2.299201    2      1      
iter:  17  17:51:01  -7.14  -4.56    -2.299201    2      1      
iter:  18  17:51:03  -7.55  -4.91    -2.299201    2      1      

Converged after 18 iterations.

Dipole moment: (-0.088118, 0.094211, -0.022364) |e|*Ang

Energy contributions relative to reference atoms: (reference = -30790.959854)

Kinetic:        +61.364165
Potential:      -47.515212
External:        +0.000000
XC:             -16.147284
Entropy (-ST):   -0.069862
Local:           +0.034060
--------------------------
Free energy:     -2.334132
Extrapolated:    -2.299201

Fermi level: -3.00463

 Band  Eigenvalues  Occupancy
    0     -5.47318    2.00000
    1     -3.64980    2.00000
    2     -3.37133    1.99869
    3     -3.00476    1.00131
    4     -2.04486    0.00000
    5     -1.74452    0.00000
    6     -1.66000    0.00000
    7     -1.48939    0.00000
    8     -1.27887    0.00000
    9     -1.03265    0.00000

Gap: 0.960 eV
Transition (v -> c):
  (s=0, k=0, n=3, [0.00, 0.00, 0.00]) -> (s=0, k=0, n=4, [0.00, 0.00, 0.00])

Forces in eV/Ang:
  0 Na   -1.56993   -0.89310   -0.75200
  1 Na    0.44855   -1.87469   -0.08273
  2 Na    2.04317   -0.17329   -1.07196
  3 Na   -0.29302    1.69732   -0.36518
  4 Na   -0.91155    1.63011   -0.55901
  5 Na   -0.96530   -0.40591    1.76810
  6 Na    1.25189    0.02046    1.06471

System changes: positions 

Initializing position-dependent things.

Density initialized from wave functions
           .--------------------------------------.  
          /|                                      |  
         / |                                      |  
        /  |                                      |  
       /   |                                      |  
      /    |                                      |  
     /     |                                      |  
    /      |                                      |  
   /       |                                      |  
  /        |                                      |  
 *         |                                      |  
 |         |                                      |  
 |         |          Na                          |  
 |         |                                      |  
 |         |               Na                     |  
 |         |         Na      Na                   |  
 |         |                                      |  
 |         |                  Na                  |  
 |         |        Na   Na                       |  
 |         |                                      |  
 |         .--------------------------------------.  
 |        /                                      /   
 |       /                                      /    
 |      /                                      /     
 |     /                                      /      
 |    /                                      /       
 |   /                                      /        
 |  /                                      /         
 | /                                      /          
 |/                                      /           
 *--------------------------------------*            

Positions:
   0 Na     6.083095    6.481853    6.509931    ( 0.0000,  0.0000,  0.0000)
   1 Na     8.372089    6.002595    6.692538    ( 0.0000,  0.0000,  0.0000)
   2 Na    10.003980    7.706970    6.541910    ( 0.0000,  0.0000,  0.0000)
   3 Na     9.075641   10.050053    6.797477    ( 0.0000,  0.0000,  0.0000)
   4 Na     6.114269    8.655151    7.640924    ( 0.0000,  0.0000,  0.0000)
   5 Na     6.713522    7.941458   10.099103    ( 0.0000,  0.0000,  0.0000)
   6 Na     8.637468    8.161841    8.718339    ( 0.0000,  0.0000,  0.0000)

Unit cell:
           periodic     x           y           z      points  spacing
  1. axis:    no    16.000000    0.000000    0.000000    64     0.2500
  2. axis:    no     0.000000   16.000000    0.000000    64     0.2500
  3. axis:    no     0.000000    0.000000   16.000000    64     0.2500

  Lengths:  16.000000  16.000000  16.000000
  Angles:   90.000000  90.000000  90.000000

Effective grid spacing dv^(1/3) = 0.2500

                     log10-error:    total        iterations:
           time      wfs    density  energy       fermi  poisson
iter:   1  17:51:05  +0.28   +inf    -3.234869    32     1      
iter:   2  17:51:07  -0.81  -1.05    -3.198693    5      1      
iter:   3  17:51:09  -0.91  -1.25    -3.181199    31     1      
iter:   4  17:51:10  -1.74  -1.77    -3.181994    3      1      
iter:   5  17:51:12  -2.54  -1.89    -3.182448    3      1      
iter:   6  17:51:14  -2.38  -2.19    -3.182373    3      1      
iter:   7  17:51:16  -2.92  -2.45    -3.182436    2      1      
iter:   8  17:51:18  -3.40  -2.83    -3.182451    2      1      
iter:   9  17:51:20  -4.11  -2.87    -3.182450    2      1      
iter:  10  17:51:22  -4.56  -3.29    -3.182451    2      1      
iter:  11  17:51:24  -4.78  -3.50    -3.182452    2      1      
iter:  12  17:51:26  -5.24  -3.91    -3.182452    2      1      
iter:  13  17:51:27  -5.66  -3.97    -3.182452    2      1      
iter:  14  17:51:29  -6.09  -3.95    -3.182452    2      1      
iter:  15  17:51:31  -6.10  -4.26    -3.182452    2      1      
iter:  16  17:51:33  -6.66  -4.59    -3.182452    1      1      
iter:  17  17:51:35  -7.15  -4.73    -3.182452    2      1      
iter:  18  17:51:37  -7.53  -5.05    -3.182452    1      1      

Converged after 18 iterations.

Dipole moment: (-0.082664, 0.097496, -0.008948) |e|*Ang

Energy contributions relative to reference atoms: (reference = -30790.959854)

Kinetic:        +54.358607
Potential:      -42.554245
External:        +0.000000
XC:             -14.969386
Entropy (-ST):   -0.069809
Local:           +0.017476
--------------------------
Free energy:     -3.217357
Extrapolated:    -3.182452

Fermi level: -2.96925

 Band  Eigenvalues  Occupancy
    0     -5.35274    2.00000
    1     -3.61247    1.99999
    2     -3.34176    1.99884
    3     -2.96937    1.00117
    4     -1.99678    0.00000
    5     -1.73244    0.00000
    6     -1.65150    0.00000
    7     -1.48707    0.00000
    8     -1.28560    0.00000
    9     -1.05613    0.00000

Gap: 0.973 eV
Transition (v -> c):
  (s=0, k=0, n=3, [0.00, 0.00, 0.00]) -> (s=0, k=0, n=4, [0.00, 0.00, 0.00])

Forces in eV/Ang:
  0 Na   -1.32836   -0.73359   -0.60561
  1 Na    0.36590   -1.56213   -0.01064
  2 Na    1.70225   -0.07920   -0.90932
  3 Na   -0.27013    1.35703   -0.28448
  4 Na   -0.65027    1.35593   -0.40769
  5 Na   -0.86776   -0.34819    1.40753
  6 Na    1.04719    0.01249    0.80980

System changes: positions 

Initializing position-dependent things.

Density initialized from wave functions
           .--------------------------------------.  
          /|                                      |  
         / |                                      |  
        /  |                                      |  
       /   |                                      |  
      /    |                                      |  
     /     |                                      |  
    /      |                                      |  
   /       |                                      |  
  /        |                                      |  
 *         |                                      |  
 |         |                                      |  
 |         |          Na                          |  
 |         |                                      |  
 |         |               Na                     |  
 |         |         Na      Na                   |  
 |         |                                      |  
 |         |                  Na                  |  
 |         |        Na   Na                       |  
 |         |                                      |  
 |         .--------------------------------------.  
 |        /                                      /   
 |       /                                      /    
 |      /                                      /     
 |     /                                      /      
 |    /                                      /       
 |   /                                      /        
 |  /                                      /         
 | /                                      /          
 |/                                      /           
 *--------------------------------------*            

Positions:
   0 Na     6.032451    6.452263    6.484769    ( 0.0000,  0.0000,  0.0000)
   1 Na     8.387561    5.940917    6.687388    ( 0.0000,  0.0000,  0.0000)
   2 Na    10.070111    7.698170    6.506996    ( 0.0000,  0.0000,  0.0000)
   3 Na     9.066796   10.108314    6.784384    ( 0.0000,  0.0000,  0.0000)
   4 Na     6.079930    8.709299    7.619265    ( 0.0000,  0.0000,  0.0000)
   5 Na     6.684010    7.928560   10.160258    ( 0.0000,  0.0000,  0.0000)
   6 Na     8.679229    8.162416    8.757208    ( 0.0000,  0.0000,  0.0000)

Unit cell:
           periodic     x           y           z      points  spacing
  1. axis:    no    16.000000    0.000000    0.000000    64     0.2500
  2. axis:    no     0.000000   16.000000    0.000000    64     0.2500
  3. axis:    no     0.000000    0.000000   16.000000    64     0.2500

  Lengths:  16.000000  16.000000  16.000000
  Angles:   90.000000  90.000000  90.000000

Effective grid spacing dv^(1/3) = 0.2500

                     log10-error:    total        iterations:
           time      wfs    density  energy       fermi  poisson
iter:   1  17:51:39  +0.16   +inf    -3.890597    33     1      
iter:   2  17:51:41  -0.95  -1.10    -3.861591    5      1      
iter:   3  17:51:43  -1.00  -1.29    -3.847309    33     1      
iter:   4  17:51:45  -1.87  -1.83    -3.847859    3      1      
iter:   5  17:51:46  -2.74  -1.96    -3.848196    3      1      
iter:   6  17:51:48  -2.41  -2.23    -3.848158    3      1      
iter:   7  17:51:50  -3.21  -2.47    -3.848180    2      1      
iter:   8  17:51:52  -3.71  -2.88    -3.848188    2      1      
iter:   9  17:51:54  -4.29  -2.94    -3.848188    2      1      
iter:  10  17:51:56  -4.70  -3.42    -3.848188    2      1      
iter:  11  17:51:58  -5.10  -3.46    -3.848188    2      1      
iter:  12  17:51:59  -5.43  -3.94    -3.848188    1      1      
iter:  13  17:52:01  -5.78  -4.09    -3.848189    2      1      
iter:  14  17:52:03  -6.12  -4.24    -3.848189    2      1      
iter:  15  17:52:05  -6.49  -4.57    -3.848189    1      1      
iter:  16  17:52:07  -6.84  -4.60    -3.848189    1      1      
iter:  17  17:52:09  -7.13  -4.70    -3.848189    2      1      
iter:  18  17:52:11  -7.57  -5.40    -3.848189    1      1      

Converged after 18 iterations.

Dipole moment: (-0.077888, 0.099443, 0.001981) |e|*Ang

Energy contributions relative to reference atoms: (reference = -30790.959854)

Kinetic:        +48.376776
Potential:      -38.251495
External:        +0.000000
XC:             -13.946665
Entropy (-ST):   -0.069822
Local:           +0.008107
--------------------------
Free energy:     -3.883099
Extrapolated:    -3.848189

Fermi level: -2.94378

 Band  Eigenvalues  Occupancy
    0     -5.24380    2.00000
    1     -3.57811    1.99999
    2     -3.31495    1.99881
    3     -2.94390    1.00120
    4     -1.95728    0.00000
    5     -1.72644    0.00000
    6     -1.64313    0.00000
    7     -1.48380    0.00000
    8     -1.29123    0.00000
    9     -1.07600    0.00000

Gap: 0.987 eV
Transition (v -> c):
  (s=0, k=0, n=3, [0.00, 0.00, 0.00]) -> (s=0, k=0, n=4, [0.00, 0.00, 0.00])

Forces in eV/Ang:
  0 Na   -1.12756   -0.60856   -0.49084
  1 Na    0.29973   -1.31196    0.03657
  2 Na    1.42736   -0.00930   -0.77520
  3 Na   -0.24189    1.09067   -0.22303
  4 Na   -0.45884    1.13021   -0.28599
  5 Na   -0.77477   -0.29663    1.11926
  6 Na    0.87624    0.01052    0.62054

System changes: positions 

Initializing position-dependent things.

Density initialized from wave functions
           .--------------------------------------.  
          /|                                      |  
         / |                                      |  
        /  |                                      |  
       /   |                                      |  
      /    |                                      |  
     /     |                                      |  
    /      |                                      |  
   /       |                                      |  
  /        |                                      |  
 *         |                                      |  
 |         |                                      |  
 |         |          Na                          |  
 |         |                                      |  
 |         |               Na                     |  
 |         |         Na      Na                   |  
 |         |                                      |  
 |         |                   Na                 |  
 |         |        Na   Na                       |  
 |         |                                      |  
 |         .--------------------------------------.  
 |        /                                      /   
 |       /                                      /    
 |      /                                      /     
 |     /                                      /      
 |    /                                      /       
 |   /                                      /        
 |  /                                      /         
 | /                                      /          
 |/                                      /           
 *--------------------------------------*            

Positions:
   0 Na     5.984575    6.424922    6.461806    ( 0.0000,  0.0000,  0.0000)
   1 Na     8.402099    5.883613    6.684137    ( 0.0000,  0.0000,  0.0000)
   2 Na    10.132018    7.691003    6.473933    ( 0.0000,  0.0000,  0.0000)
   3 Na     9.057718   10.161812    6.772589    ( 0.0000,  0.0000,  0.0000)
   4 Na     6.050252    8.759989    7.599914    ( 0.0000,  0.0000,  0.0000)
   5 Na     6.654761    7.916057   10.216424    ( 0.0000,  0.0000,  0.0000)
   6 Na     8.718690    8.162593    8.791518    ( 0.0000,  0.0000,  0.0000)

Unit cell:
           periodic     x           y           z      points  spacing
  1. axis:    no    16.000000    0.000000    0.000000    64     0.2500
  2. axis:    no     0.000000   16.000000    0.000000    64     0.2500
  3. axis:    no     0.000000    0.000000   16.000000    64     0.2500

  Lengths:  16.000000  16.000000  16.000000
  Angles:   90.000000  90.000000  90.000000

Effective grid spacing dv^(1/3) = 0.2500

                     log10-error:    total        iterations:
           time      wfs    density  energy       fermi  poisson
iter:   1  17:52:13  +0.05   +inf    -4.392906    33     1      
iter:   2  17:52:15  -1.08  -1.14    -4.369199    4      1      
iter:   3  17:52:17  -1.09  -1.34    -4.357365    6      1      
iter:   4  17:52:18  -1.98  -1.89    -4.357739    3      1      
iter:   5  17:52:20  -2.91  -2.03    -4.357981    3      1      
iter:   6  17:52:22  -2.46  -2.28    -4.357982    3      1      
iter:   7  17:52:24  -3.48  -2.49    -4.357975    2      1      
iter:   8  17:52:26  -3.99  -2.92    -4.357979    2      1      
iter:   9  17:52:28  -4.45  -3.00    -4.357979    2      1      
iter:  10  17:52:29  -4.85  -3.50    -4.357979    2      1      
iter:  11  17:52:31  -5.31  -3.46    -4.357979    2      1      
iter:  12  17:52:33  -5.65  -3.80    -4.357979    2      1      
iter:  13  17:52:35  -5.92  -4.04    -4.357979    1      1      
iter:  14  17:52:37  -6.28  -4.36    -4.357979    1      1      
iter:  15  17:52:39  -6.62  -4.45    -4.357979    1      1      
iter:  16  17:52:41  -6.98  -4.64    -4.357979    1      1      
iter:  17  17:52:42  -7.33  -4.76    -4.357979    1      1      
iter:  18  17:52:44  -7.68  -4.96    -4.357979    1      1      

Converged after 18 iterations.

Dipole moment: (-0.073427, 0.100252, 0.010983) |e|*Ang

Energy contributions relative to reference atoms: (reference = -30790.959854)

Kinetic:        +43.215576
Potential:      -34.493678
External:        +0.000000
XC:             -13.047532
Entropy (-ST):   -0.069875
Local:           +0.002591
--------------------------
Free energy:     -4.392917
Extrapolated:    -4.357979

Fermi level: -2.92485

 Band  Eigenvalues  Occupancy
    0     -5.14507    2.00000
    1     -3.54649    1.99999
    2     -3.29045    1.99867
    3     -2.92499    1.00134
    4     -1.92554    0.00000
    5     -1.72510    0.00000
    6     -1.63548    0.00000
    7     -1.47946    0.00000
    8     -1.29549    0.00000
    9     -1.09265    0.00000

Gap: 0.999 eV
Transition (v -> c):
  (s=0, k=0, n=3, [0.00, 0.00, 0.00]) -> (s=0, k=0, n=4, [0.00, 0.00, 0.00])

Forces in eV/Ang:
  0 Na   -0.95969   -0.50680   -0.39963
  1 Na    0.24694   -1.10956    0.06637
  2 Na    1.19644    0.03926   -0.66258
  3 Na   -0.21053    0.87724   -0.17293
  4 Na   -0.31593    0.93798   -0.19334
  5 Na   -0.68740   -0.25013    0.88825
  6 Na    0.73125    0.01296    0.47701

System changes: positions 

Initializing position-dependent things.

Density initialized from wave functions
           .--------------------------------------.  
          /|                                      |  
         / |                                      |  
        /  |                                      |  
       /   |                                      |  
      /    |                                      |  
     /     |                                      |  
    /      |                                      |  
   /       |                                      |  
  /        |                                      |  
 *         |                                      |  
 |         |                                      |  
 |         |          Na                          |  
 |         |                                      |  
 |         |               Na                     |  
 |         |         Na      Na                   |  
 |         |                                      |  
 |         |                   Na                 |  
 |         |       Na    Na                       |  
 |         |                                      |  
 |         .--------------------------------------.  
 |        /                                      /   
 |       /                                      /    
 |      /                                      /     
 |     /                                      /      
[...]
Dipole moment: (0.029194, -0.015928, 0.045226) |e|*Ang

Energy contributions relative to reference atoms: (reference = -30790.959854)

Kinetic:        +22.755265
Potential:      -19.913595
External:        +0.000000
XC:              -8.564335
Entropy (-ST):   -0.069832
Local:           +0.031735
--------------------------
Free energy:     -5.760762
Extrapolated:    -5.725846

Fermi level: -2.74343

 Band  Eigenvalues  Occupancy
    0     -4.69452    2.00000
    1     -3.31016    1.99998
    2     -3.11462    1.99881
    3     -2.74355    1.00122
    4     -1.64096    0.00000
    5     -1.60559    0.00000
    6     -1.43792    0.00000
    7      1.47289    0.00000
    8      1.72518    0.00000
    9      1.83233    0.00000

Gap: 1.103 eV
Transition (v -> c):
  (s=0, k=0, n=3, [0.00, 0.00, 0.00]) -> (s=0, k=0, n=4, [0.00, 0.00, 0.00])

Forces in eV/Ang:
  0 Na    0.07896    0.03978    0.04427
  1 Na   -0.01285    0.06554    0.00458
  2 Na   -0.03584   -0.03832    0.03593
  3 Na   -0.00217   -0.02786   -0.01541
  4 Na   -0.00032   -0.04134    0.06703
  5 Na    0.01027    0.01408   -0.08657
  6 Na   -0.03833   -0.01180   -0.05113

System changes: positions 

Initializing position-dependent things.

Density initialized from wave functions
           .--------------------------------------.  
          /|                                      |  
         / |                                      |  
        /  |                                      |  
       /   |                                      |  
      /    |                                      |  
     /     |                                      |  
    /      |                                      |  
   /       |                                      |  
  /        |                                      |  
 *         |                                      |  
 |         |                                      |  
 |         |                                      |  
 |         |                                      |  
 |         |        NaNa     Na                   |  
 |         |                  Na                  |  
 |         |                                      |  
 |         |             Na                       |  
 |         |        Na       Na                   |  
 |         |                                      |  
 |         .--------------------------------------.  
 |        /                                      /   
 |       /                                      /    
 |      /                                      /     
 |     /                                      /      
 |    /                                      /       
 |   /                                      /        
 |  /                                      /         
 | /                                      /          
 |/                                      /           
 *--------------------------------------*            

Positions:
   0 Na     6.146363    6.677439    6.293278    ( 0.0000,  0.0000,  0.0000)
   1 Na     8.742285    5.059245    7.784237    ( 0.0000,  0.0000,  0.0000)
   2 Na     9.681532    7.537724    5.696109    ( 0.0000,  0.0000,  0.0000)
   3 Na     9.074840   10.737177    6.682552    ( 0.0000,  0.0000,  0.0000)
   4 Na     6.061960    9.775946    7.812467    ( 0.0000,  0.0000,  0.0000)
   5 Na     6.115834    6.907252    9.739180    ( 0.0000,  0.0000,  0.0000)
   6 Na     9.153257    8.319270    9.000160    ( 0.0000,  0.0000,  0.0000)

Unit cell:
           periodic     x           y           z      points  spacing
  1. axis:    no    16.000000    0.000000    0.000000    64     0.2500
  2. axis:    no     0.000000   16.000000    0.000000    64     0.2500
  3. axis:    no     0.000000    0.000000   16.000000    64     0.2500

  Lengths:  16.000000  16.000000  16.000000
  Angles:   90.000000  90.000000  90.000000

Effective grid spacing dv^(1/3) = 0.2500

                     log10-error:    total        iterations:
           time      wfs    density  energy       fermi  poisson
iter:   1  17:59:27          +inf    -5.732559    2      1      
iter:   2  17:59:28         -2.46    -5.732483    2      1      
iter:   3  17:59:29         -2.82    -5.732474    2      1      
iter:   4  17:59:30         -3.08    -5.732472    2      1      
iter:   5  17:59:32         -3.56    -5.732472    2      1      
iter:   6  17:59:33         -3.81    -5.732472    2      1      
iter:   7  17:59:34         -4.47    -5.732472    1      1      

Converged after 7 iterations.

Dipole moment: (0.031211, -0.016550, 0.043199) |e|*Ang

Energy contributions relative to reference atoms: (reference = -30790.959854)

Kinetic:        +23.126095
Potential:      -20.205570
External:        +0.000000
XC:              -8.650234
Entropy (-ST):   -0.069794
Local:           +0.032134
--------------------------
Free energy:     -5.767369
Extrapolated:    -5.732472

Fermi level: -2.74257

 Band  Eigenvalues  Occupancy
    0     -4.70508    2.00000
    1     -3.31058    1.99998
    2     -3.11814    1.99891
    3     -2.74268    1.00112
    4     -1.63518    0.00000
    5     -1.60531    0.00000
    6     -1.43176    0.00000
    7      1.44118    0.00000
    8      1.70791    0.00000
    9      1.81324    0.00000

Gap: 1.107 eV
Transition (v -> c):
  (s=0, k=0, n=3, [0.00, 0.00, 0.00]) -> (s=0, k=0, n=4, [0.00, 0.00, 0.00])

Forces in eV/Ang:
  0 Na    0.07196    0.03898    0.04347
  1 Na   -0.01713    0.05425    0.00839
  2 Na   -0.02018   -0.03458    0.01524
  3 Na   -0.00669   -0.01911   -0.01861
  4 Na    0.00120   -0.04066    0.06381
  5 Na    0.01237    0.01543   -0.08036
  6 Na   -0.04132   -0.01444   -0.03266

System changes: positions 

Initializing position-dependent things.

Density initialized from wave functions
           .--------------------------------------.  
          /|                                      |  
         / |                                      |  
        /  |                                      |  
       /   |                                      |  
      /    |                                      |  
     /     |                                      |  
    /      |                                      |  
   /       |                                      |  
  /        |                                      |  
 *         |                                      |  
 |         |                                      |  
 |         |                                      |  
 |         |                                      |  
 |         |        NaNa     Na                   |  
 |         |                  Na                  |  
 |         |                                      |  
 |         |             Na                       |  
 |         |        Na       Na                   |  
 |         |                                      |  
 |         .--------------------------------------.  
 |        /                                      /   
 |       /                                      /    
 |      /                                      /     
 |     /                                      /      
 |    /                                      /       
 |   /                                      /        
 |  /                                      /         
 | /                                      /          
 |/                                      /           
 *--------------------------------------*            

Positions:
   0 Na     6.167280    6.691051    6.289879    ( 0.0000,  0.0000,  0.0000)
   1 Na     8.747486    5.069116    7.793953    ( 0.0000,  0.0000,  0.0000)
   2 Na     9.659391    7.527041    5.708177    ( 0.0000,  0.0000,  0.0000)
   3 Na     9.076327   10.726766    6.678149    ( 0.0000,  0.0000,  0.0000)
   4 Na     6.059580    9.776499    7.830983    ( 0.0000,  0.0000,  0.0000)
   5 Na     6.113265    6.899584    9.722957    ( 0.0000,  0.0000,  0.0000)
   6 Na     9.152356    8.323564    8.984173    ( 0.0000,  0.0000,  0.0000)

Unit cell:
           periodic     x           y           z      points  spacing
  1. axis:    no    16.000000    0.000000    0.000000    64     0.2500
  2. axis:    no     0.000000   16.000000    0.000000    64     0.2500
  3. axis:    no     0.000000    0.000000   16.000000    64     0.2500

  Lengths:  16.000000  16.000000  16.000000
  Angles:   90.000000  90.000000  90.000000

Effective grid spacing dv^(1/3) = 0.2500

                     log10-error:    total        iterations:
           time      wfs    density  energy       fermi  poisson
iter:   1  17:59:37          +inf    -5.738258    2      1      
iter:   2  17:59:38         -2.48    -5.738188    2      1      
iter:   3  17:59:39         -2.82    -5.738178    2      1      
iter:   4  17:59:40         -3.08    -5.738177    2      1      
iter:   5  17:59:41         -3.55    -5.738176    2      1      
iter:   6  17:59:43         -3.83    -5.738176    2      1      
iter:   7  17:59:44         -4.46    -5.738176    1      1      

Converged after 7 iterations.

Dipole moment: (0.032677, -0.016303, 0.041025) |e|*Ang

Energy contributions relative to reference atoms: (reference = -30790.959854)

Kinetic:        +23.618772
Potential:      -20.593575
External:        +0.000000
XC:              -8.761174
Entropy (-ST):   -0.069738
Local:           +0.032669
--------------------------
Free energy:     -5.773045
Extrapolated:    -5.738176

Fermi level: -2.74040

 Band  Eigenvalues  Occupancy
    0     -4.71778    2.00000
    1     -3.31141    1.99998
    2     -3.12322    1.99905
    3     -2.74049    1.00097
    4     -1.62868    0.00000
    5     -1.60366    0.00000
    6     -1.42480    0.00000
    7      1.40054    0.00000
    8      1.69007    0.00000
    9      1.79110    0.00000

Gap: 1.112 eV
Transition (v -> c):
  (s=0, k=0, n=3, [0.00, 0.00, 0.00]) -> (s=0, k=0, n=4, [0.00, 0.00, 0.00])

Forces in eV/Ang:
  0 Na    0.06204    0.03790    0.03825
  1 Na   -0.01944    0.03856    0.01461
  2 Na   -0.00429   -0.02945   -0.00799
  3 Na   -0.01128   -0.01015   -0.02203
  4 Na    0.00219   -0.03623    0.05950
  5 Na    0.01242    0.01445   -0.07001
  6 Na   -0.04151   -0.01511   -0.01222

System changes: positions 

Initializing position-dependent things.

Density initialized from wave functions
           .--------------------------------------.  
          /|                                      |  
         / |                                      |  
        /  |                                      |  
       /   |                                      |  
      /    |                                      |  
     /     |                                      |  
    /      |                                      |  
   /       |                                      |  
  /        |                                      |  
 *         |                                      |  
 |         |                                      |  
 |         |                                      |  
 |         |                                      |  
 |         |        NaNa     Na                   |  
 |         |                  Na                  |  
 |         |                                      |  
 |         |              Na                      |  
 |         |        Na       Na                   |  
 |         |                                      |  
 |         .--------------------------------------.  
 |        /                                      /   
 |       /                                      /    
 |      /                                      /     
 |     /                                      /      
 |    /                                      /       
 |   /                                      /        
 |  /                                      /         
 | /                                      /          
 |/                                      /           
 *--------------------------------------*            

Positions:
   0 Na     6.179568    6.698715    6.289740    ( 0.0000,  0.0000,  0.0000)
   1 Na     8.749838    5.076027    7.798526    ( 0.0000,  0.0000,  0.0000)
   2 Na     9.647510    7.520754    5.715682    ( 0.0000,  0.0000,  0.0000)
   3 Na     9.077078   10.720702    6.675673    ( 0.0000,  0.0000,  0.0000)
   4 Na     6.058371    9.775547    7.841917    ( 0.0000,  0.0000,  0.0000)
   5 Na     6.112169    6.896338    9.712492    ( 0.0000,  0.0000,  0.0000)
   6 Na     9.150932    8.325297    8.974386    ( 0.0000,  0.0000,  0.0000)

Unit cell:
           periodic     x           y           z      points  spacing
  1. axis:    no    16.000000    0.000000    0.000000    64     0.2500
  2. axis:    no     0.000000   16.000000    0.000000    64     0.2500
  3. axis:    no     0.000000    0.000000   16.000000    64     0.2500

  Lengths:  16.000000  16.000000  16.000000
  Angles:   90.000000  90.000000  90.000000

Effective grid spacing dv^(1/3) = 0.2500

                     log10-error:    total        iterations:
           time      wfs    density  energy       fermi  poisson
iter:   1  17:59:46          +inf    -5.741019    2      1      
iter:   2  17:59:47         -2.71    -5.740995    2      1      
iter:   3  17:59:49         -3.02    -5.740992    2      1      
iter:   4  17:59:50         -3.29    -5.740992    2      1      
iter:   5  17:59:51         -3.75    -5.740992    2      1      
iter:   6  17:59:52         -4.06    -5.740992    1      1      

Converged after 6 iterations.

Dipole moment: (0.033244, -0.015823, 0.039738) |e|*Ang

Energy contributions relative to reference atoms: (reference = -30790.959854)

Kinetic:        +23.958843
Potential:      -20.861211
External:        +0.000000
XC:              -8.836819
Entropy (-ST):   -0.069700
Local:           +0.033045
--------------------------
Free energy:     -5.775842
Extrapolated:    -5.740992

Fermi level: -2.73866

 Band  Eigenvalues  Occupancy
    0     -4.72618    2.00000
    1     -3.31201    1.99998
    2     -3.12685    1.99915
    3     -2.73875    1.00087
    4     -1.62465    0.00000
    5     -1.60207    0.00000
    6     -1.42036    0.00000
    7      1.37319    0.00000
    8      1.67938    0.00000
    9      1.77689    0.00000

Gap: 1.114 eV
Transition (v -> c):
  (s=0, k=0, n=3, [0.00, 0.00, 0.00]) -> (s=0, k=0, n=4, [0.00, 0.00, 0.00])

Forces in eV/Ang:
  0 Na    0.05513    0.03722    0.03315
  1 Na   -0.02003    0.02752    0.01928
  2 Na    0.00529   -0.02566   -0.02257
  3 Na   -0.01401   -0.00495   -0.02412
  4 Na    0.00264   -0.03188    0.05633
  5 Na    0.01161    0.01267   -0.06213
  6 Na   -0.04060   -0.01461    0.00046

Timing:                                       incl.     excl.
--------------------------------------------------------------------
Basic WFS set positions:                      0.072     0.037   0.0% |
 Redistribute:                                0.035     0.035   0.0% |
Basis functions set positions:                3.416     3.416   0.4% |
Forces:                                      55.042    10.468   1.1% |
 LCAO forces:                                44.574     0.042   0.0% |
  Atomic Hamiltonian force:                   0.163     0.163   0.0% |
  Initial:                                    0.010     0.001   0.0% |
   Get density matrix:                        0.010     0.010   0.0% |
  Paw correction:                             0.141     0.141   0.0% |
  Potential:                                 41.486    41.486   4.4% |-|
  TCI derivative:                             2.731     2.731   0.3% |
  Wait for sum:                               0.001     0.001   0.0% |
LCAO WFS Initialize:                        115.252     0.073   0.0% |
 Density initialized from wave functions:    17.812     8.485   0.9% |
  Calculate density matrix:                   0.009     0.009   0.0% |
  Construct density:                          9.316     9.316   1.0% |
  Symmetrize density:                         0.002     0.002   0.0% |
 Hamiltonian:                                97.367     0.013   0.0% |
  Atomic:                                    12.341     0.105   0.0% |
   XC Correction:                            12.237    12.237   1.3% ||
  Calculate atomic Hamiltonians:              0.822     0.822   0.1% |
  Communicate:                                0.001     0.001   0.0% |
  Hartree integrate/restrict:                 4.625     4.625   0.5% |
  Initialize Hamiltonian:                     0.000     0.000   0.0% |
  Poisson:                                   24.798     1.409   0.1% |
   Communicate bwd 0:                         2.875     2.875   0.3% |
   Communicate bwd 1:                         1.768     1.768   0.2% |
   Communicate fwd 0:                         2.670     2.670   0.3% |
   Communicate fwd 1:                         3.048     3.048   0.3% |
   fft:                                       3.848     3.848   0.4% |
   fft2:                                      9.179     9.179   1.0% |
  XC 3D grid:                                54.173    54.173   5.7% |-|
  vbar:                                       0.593     0.593   0.1% |
P tci:                                        1.474     1.474   0.2% |
Redistribute:                                 0.018     0.018   0.0% |
SCF-cycle:                                  742.889     0.626   0.1% |
 Density:                                   108.559     0.016   0.0% |
  Atomic density matrices:                    0.576     0.576   0.1% |
  Mix:                                       50.624    50.624   5.3% |-|
  Multipole moments:                          0.143     0.143   0.0% |
  Normalize:                                  0.214     0.214   0.0% |
  Pseudo density:                            56.986     0.484   0.1% |
   Calculate density matrix:                  0.031     0.031   0.0% |
   Construct density:                        56.457    56.457   5.9% |-|
   Symmetrize density:                        0.015     0.015   0.0% |
 Hamiltonian:                               575.359     0.075   0.0% |
  Atomic:                                    73.472     0.645   0.1% |
   XC Correction:                            72.827    72.827   7.6% |--|
  Calculate atomic Hamiltonians:              4.871     4.871   0.5% |
  Communicate:                                0.006     0.006   0.0% |
  Hartree integrate/restrict:                28.614    28.614   3.0% ||
  Poisson:                                  147.004     8.402   0.9% |
   Communicate bwd 0:                        17.151    17.151   1.8% ||
   Communicate bwd 1:                        10.577    10.577   1.1% |
   Communicate fwd 0:                        15.273    15.273   1.6% ||
   Communicate fwd 1:                        17.835    17.835   1.9% ||
   fft:                                      22.978    22.978   2.4% ||
   fft2:                                     54.789    54.789   5.7% |-|
  XC 3D grid:                               317.773   317.773  33.3% |------------|
  vbar:                                       3.544     3.544   0.4% |
 LCAO eigensolver:                           58.346     0.065   0.0% |
  Calculate projections:                      0.041     0.041   0.0% |
  DenseAtomicCorrection:                      0.204     0.204   0.0% |
  Distribute overlap matrix:                  0.008     0.008   0.0% |
  Orbital Layouts:                            0.264     0.264   0.0% |
  Potential matrix:                          57.765    57.765   6.1% |-|
ST tci:                                       0.427     0.427   0.0% |
Set symmetry:                                 0.001     0.001   0.0% |
TCI: Evaluate splines:                        0.026     0.026   0.0% |
mktci:                                        0.136     0.136   0.0% |
Other:                                       34.637    34.637   3.6% ||
--------------------------------------------------------------------
Total:                                                953.390 100.0%

Date: Fri Feb  5 17:59:53 2021
