
  ___ ___ ___ _ _ _  
 |   |   |_  | | | | 
 | | | | | . | | | | 
 |__ |  _|___|_____|  20.10.0
 |___|_|             

User:   eliasel@hebbe13-1
Date:   Fri Feb 26 22:03:09 2021
Arch:   x86_64
Pid:    715
Python: 3.7.4
gpaw:   /apps/Hebbe7/software/MPI/GCC/8.3.0/OpenMPI/3.1.4/GPAW/20.10.0-ASE-3.20.1-Python-3.7.4/lib/python3.7/site-packages/gpaw
_gpaw:  /apps/Hebbe7/software/MPI/GCC/8.3.0/OpenMPI/3.1.4/GPAW/20.10.0-ASE-3.20.1-Python-3.7.4/lib/python3.7/site-packages/
        _gpaw.cpython-37m-x86_64-linux-gnu.so
ase:    /apps/Hebbe7/software/MPI/GCC/8.3.0/OpenMPI/3.1.4/ASE/3.20.1-Python-3.7.4/lib/python3.7/site-packages/ase (version 3.20.1)
numpy:  /apps/Hebbe7/software/MPI/GCC/8.3.0/OpenMPI/3.1.4/SciPy-bundle/2019.10-Python-3.7.4/lib/python3.7/site-packages/numpy (version 1.17.3)
scipy:  /apps/Hebbe7/software/MPI/GCC/8.3.0/OpenMPI/3.1.4/SciPy-bundle/2019.10-Python-3.7.4/lib/python3.7/site-packages/scipy (version 1.3.1)
libxc:  4.3.4
units:  Angstrom and eV
cores: 16
OMP_NUM_THREADS: 1

Input parameters:
  kpts: [8 8 8]
  mode: {ecut: 200.0,
         gammacentered: False,
         name: pw}
  occupations: {fixmagmom: False,
                name: fermi-dirac,
                width: 0.01}
  random: True
  xc: PBE

System changes: positions, numbers, cell, pbc, initial_charges, initial_magmoms 

Initialize ...

Si-setup:
  name: Silicon
  id: ee77bee481871cc2cb65ac61239ccafa
  Z: 14.0
  valence: 4
  core: 10
  charge: 0.0
  file: /apps/Hebbe7/software/Core/GPAW-setups/0.9.20000/Si.PBE.gz
  compensation charges: gauss, rc=0.33, lmax=2
  cutoffs: 1.86(filt), 2.06(core),
  valence states:
                energy  radius
    3s(2.00)   -10.812   1.058
    3p(2.00)    -4.081   1.058
    *s          16.399   1.058
    *p          23.130   1.058
    *d           0.000   1.058

  Using partial waves for Si as LCAO basis

Reference energy: -15772.688500

Spin-paired calculation

Convergence criteria:
  Maximum total energy change: 0.0005 eV / electron
  Maximum integral of absolute density change: 0.0001 electrons
  Maximum integral of absolute eigenstate change: 4e-08 eV^2
  Maximum number of iterations: 333

Symmetries present (total): 24

  ( 1  0  0)  ( 1  0  0)  ( 1  0 -1)  ( 1  0 -1)  ( 1 -1  0)  ( 1 -1  0)
  ( 0  1  0)  ( 0  0  1)  ( 0  1 -1)  ( 0  0 -1)  ( 0 -1  1)  ( 0 -1  0)
  ( 0  0  1)  ( 0  1  0)  ( 0  0 -1)  ( 0  1 -1)  ( 0 -1  0)  ( 0 -1  1)

  ( 0  1  0)  ( 0  1  0)  ( 0  1 -1)  ( 0  1 -1)  ( 0  0  1)  ( 0  0  1)
  ( 1  0  0)  ( 0  0  1)  ( 1  0 -1)  ( 0  0 -1)  ( 1  0  0)  ( 0  1  0)
  ( 0  0  1)  ( 1  0  0)  ( 0  0 -1)  ( 1  0 -1)  ( 0  1  0)  ( 1  0  0)

  ( 0  0 -1)  ( 0  0 -1)  ( 0 -1  1)  ( 0 -1  1)  ( 0 -1  0)  ( 0 -1  0)
  ( 1  0 -1)  ( 0  1 -1)  ( 1 -1  0)  ( 0 -1  0)  ( 1 -1  0)  ( 0 -1  1)
  ( 0  1 -1)  ( 1  0 -1)  ( 0 -1  0)  ( 1 -1  0)  ( 0 -1  1)  ( 1 -1  0)

  (-1  1  0)  (-1  1  0)  (-1  0  1)  (-1  0  1)  (-1  0  0)  (-1  0  0)
  (-1  0  1)  (-1  0  0)  (-1  1  0)  (-1  0  0)  (-1  1  0)  (-1  0  1)
  (-1  0  0)  (-1  0  1)  (-1  0  0)  (-1  1  0)  (-1  0  1)  (-1  1  0)
Note: your k-points are not as symmetric as your crystal!

512 k-points: 8 x 8 x 8 Monkhorst-Pack grid
60 k-points in the irreducible part of the Brillouin zone
       k-points in crystal coordinates                weights
   0:     0.06250000    0.06250000   -0.06250000          6/512
   1:     0.06250000    0.06250000    0.06250000          2/512
   2:     0.18750000   -0.06250000   -0.06250000          6/512
   3:     0.18750000    0.06250000   -0.18750000         12/512
   4:     0.18750000    0.06250000   -0.06250000         12/512
   5:     0.18750000    0.06250000    0.06250000          6/512
   6:     0.18750000    0.18750000   -0.18750000          6/512
   7:     0.18750000    0.18750000   -0.06250000          6/512
   8:     0.18750000    0.18750000    0.06250000          6/512
   9:     0.18750000    0.18750000    0.18750000          2/512
          ...
  59:     0.43750000    0.43750000    0.43750000          2/512

Wave functions: Plane wave expansion
  Cutoff energy: 200.000 eV
  Number of coefficients (min, max): 251, 271
  Pulay-stress correction: 0.000000 eV/Ang^3 (de/decut=0.000000)
  Using FFTW library
  ScaLapack parameters: grid=1x1, blocksize=None
  Wavefunction extrapolation:
    Improved wavefunction reuse through dual PAW basis 

  Fermi-Dirac: width=0.0100 eV

Eigensolver
   Davidson(niter=2, smin=None, normalize=True) 

Densities:
  Coarse grid: 14*14*14 grid
  Fine grid: 28*28*28 grid
  Total Charge: 0.000000 

Density mixing:
  Method: separate
  Backend: pulay
  Linear mixing parameter: 0.05
  Mixing with 5 old densities
  Damping of long wave oscillations: 50 

Hamiltonian:
  XC and Coulomb potentials evaluated on a 28*28*28 grid
  Using the PBE Exchange-Correlation functional
 

XC parameters: PBE with 2 nearest neighbor stencil

Memory estimate:
  Process memory now: 130.36 MiB
  Calculator: 1.76 MiB
    Density: 1.03 MiB
      Arrays: 0.54 MiB
      Localized functions: 0.27 MiB
      Mixer: 0.21 MiB
    Hamiltonian: 0.36 MiB
      Arrays: 0.36 MiB
      XC: 0.00 MiB
      Poisson: 0.00 MiB
      vbar: 0.01 MiB
    Wavefunctions: 0.37 MiB
      Arrays psit_nG: 0.10 MiB
      Eigensolver: 0.06 MiB
      Projections: 0.01 MiB
      Projectors: 0.09 MiB
      PW-descriptor: 0.12 MiB

Total number of cores used: 16
Parallelization over k-points: 16

Number of atoms: 2
Number of atomic orbitals: 8
Number of bands in calculation: 8
Number of valence electrons: 8
Bands to converge: occupied

... initialized

Initializing position-dependent things.

Density initialized from atomic densities
Creating initial wave functions:
  8 bands from LCAO basis set

                    
                    
                    
                    
           Si       
                    
       Si           
                    
                    
                    
                    

Positions:
   0 Si     0.000000    0.000000    0.000000    ( 0.0000,  0.0000,  0.0000)
   1 Si     1.357500    1.357500    1.357500    ( 0.0000,  0.0000,  0.0000)

Unit cell:
           periodic     x           y           z      points  spacing
  1. axis:    yes    0.000000    2.715000    2.715000    14     0.2239
  2. axis:    yes    2.715000    0.000000    2.715000    14     0.2239
  3. axis:    yes    2.715000    2.715000    0.000000    14     0.2239

  Lengths:   3.839590   3.839590   3.839590
  Angles:   60.000000  60.000000  60.000000

Effective grid spacing dv^(1/3) = 0.2443

                     log10-error:    total        iterations:
           time      wfs    density  energy       poisson
iter:   1  22:03:23                 -10.865639           
iter:   2  22:03:33  -1.97  -0.80   -10.866460           
iter:   3  22:03:42  -1.07  -0.81   -11.214850           
iter:   4  22:03:52  -2.03  -0.61   -10.827973           
iter:   5  22:04:01  -3.00  -1.21   -10.805922           
iter:   6  22:04:10  -2.69  -1.36   -10.781421           
iter:   7  22:04:20  -4.32  -2.48   -10.781305           
iter:   8  22:04:30  -5.40  -2.93   -10.781305           
iter:   9  22:04:39  -5.24  -2.93   -10.781445           
iter:  10  22:04:48  -5.94  -2.48   -10.781352           
iter:  11  22:04:58  -5.89  -2.70   -10.781302           
iter:  12  22:05:07  -6.00  -3.02   -10.781296           
iter:  13  22:05:17  -7.38  -4.60   -10.781296           
iter:  14  22:05:26  -8.20  -4.56   -10.781296           

Converged after 14 iterations.

Dipole moment: (-2.923916, -2.923916, -2.923916) |e|*Ang

Energy contributions relative to reference atoms: (reference = -15772.688500)

Kinetic:        +15.687421
Potential:      -13.753321
External:        +0.000000
XC:             -12.665357
Entropy (-ST):   -0.000000
Local:           -0.050040
--------------------------
Free energy:    -10.781296
Extrapolated:   -10.781296

Showing only first 2 kpts
 Kpt  Band  Eigenvalues  Occupancy
  0     2      4.79614    0.02344
  0     3      4.96447    0.02344
  0     4      7.71351    0.00000
  0     5      8.33100    0.00000

  1     2      5.23213    0.00781
  1     3      5.23213    0.00781
  1     4      7.94126    0.00000
  1     5      8.00075    0.00000


Fermi level: 5.84559

Gap: 0.814 eV
Transition (v -> c):
  (s=0, k=1, n=3, [0.06, 0.06, 0.06]) -> (s=0, k=55, n=4, [0.44, 0.44, -0.06])
Writing to Si_gs.gpw (mode='')

Timing:                              incl.     excl.
-----------------------------------------------------------
Hamiltonian:                         0.323     0.000   0.0% |
 Atomic:                             0.105     0.105   0.0% |
  XC Correction:                     0.000     0.000   0.0% |
 Calculate atomic Hamiltonians:      0.001     0.001   0.0% |
 Communicate:                        0.000     0.000   0.0% |
 Initialize Hamiltonian:             0.000     0.000   0.0% |
 Poisson:                            0.000     0.000   0.0% |
 XC 3D grid:                         0.217     0.217   0.1% |
LCAO initialization:                 1.503     0.023   0.0% |
 LCAO eigensolver:                   1.275     0.000   0.0% |
  Calculate projections:             0.000     0.000   0.0% |
  DenseAtomicCorrection:             0.000     0.000   0.0% |
  Distribute overlap matrix:         0.000     0.000   0.0% |
  Orbital Layouts:                   1.234     1.234   0.4% |
  Potential matrix:                  0.033     0.033   0.0% |
  Sum over cells:                    0.007     0.007   0.0% |
 LCAO to grid:                       0.043     0.043   0.0% |
 Set positions (LCAO WFS):           0.162     0.015   0.0% |
  Basic WFS set positions:           0.002     0.002   0.0% |
  Basis functions set positions:     0.000     0.000   0.0% |
  P tci:                             0.018     0.018   0.0% |
  ST tci:                            0.030     0.030   0.0% |
  mktci:                             0.097     0.097   0.0% |
PWDescriptor:                        0.049     0.049   0.0% |
SCF-cycle:                         132.837    31.324  11.2% |---|
 Davidson:                          96.839     3.232   1.2% |
  Apply H:                           0.024     0.021   0.0% |
   HMM T:                            0.003     0.003   0.0% |
  Subspace diag:                    11.340     0.004   0.0% |
   calc_h_matrix:                    2.639     2.615   0.9% |
    Apply H:                         0.025     0.021   0.0% |
     HMM T:                          0.004     0.004   0.0% |
   diagonalize:                      8.692     8.692   3.1% ||
   rotate_psi:                       0.005     0.005   0.0% |
  calc. matrices:                    2.839     2.792   1.0% |
   Apply H:                          0.047     0.040   0.0% |
    HMM T:                           0.007     0.007   0.0% |
  diagonalize:                      79.398    79.398  28.4% |----------|
  rotate_psi:                        0.006     0.006   0.0% |
 Density:                            0.522     0.000   0.0% |
  Atomic density matrices:           0.021     0.021   0.0% |
  Mix:                               0.422     0.422   0.2% |
  Multipole moments:                 0.002     0.002   0.0% |
  Pseudo density:                    0.077     0.018   0.0% |
   Symmetrize density:               0.059     0.059   0.0% |
 Hamiltonian:                        4.066     0.004   0.0% |
  Atomic:                            1.384     1.384   0.5% |
   XC Correction:                    0.000     0.000   0.0% |
  Calculate atomic Hamiltonians:     0.011     0.011   0.0% |
  Communicate:                       0.035     0.035   0.0% |
  Poisson:                           0.002     0.002   0.0% |
  XC 3D grid:                        2.631     2.631   0.9% |
 Orthonormalize:                     0.086     0.000   0.0% |
  calc_s_matrix:                     0.084     0.084   0.0% |
  inverse-cholesky:                  0.001     0.001   0.0% |
  projections:                       0.001     0.001   0.0% |
  rotate_psi_s:                      0.000     0.000   0.0% |
Set symmetry:                        0.063     0.063   0.0% |
Other:                             145.013   145.013  51.8% |--------------------|
-----------------------------------------------------------
Total:                                       279.788 100.0%

Date: Fri Feb 26 22:07:49 2021
