
  ___ ___ ___ _ _ _  
 |   |   |_  | | | | 
 | | | | | . | | | | 
 |__ |  _|___|_____|  20.10.0
 |___|_|             

User:   eliasel@hebbe13-1
Date:   Fri Feb 26 22:05:28 2021
Arch:   x86_64
Pid:    715
Python: 3.7.4
gpaw:   /apps/Hebbe7/software/MPI/GCC/8.3.0/OpenMPI/3.1.4/GPAW/20.10.0-ASE-3.20.1-Python-3.7.4/lib/python3.7/site-packages/gpaw
_gpaw:  /apps/Hebbe7/software/MPI/GCC/8.3.0/OpenMPI/3.1.4/GPAW/20.10.0-ASE-3.20.1-Python-3.7.4/lib/python3.7/site-packages/
        _gpaw.cpython-37m-x86_64-linux-gnu.so
ase:    /apps/Hebbe7/software/MPI/GCC/8.3.0/OpenMPI/3.1.4/ASE/3.20.1-Python-3.7.4/lib/python3.7/site-packages/ase (version 3.20.1)
numpy:  /apps/Hebbe7/software/MPI/GCC/8.3.0/OpenMPI/3.1.4/SciPy-bundle/2019.10-Python-3.7.4/lib/python3.7/site-packages/numpy (version 1.17.3)
scipy:  /apps/Hebbe7/software/MPI/GCC/8.3.0/OpenMPI/3.1.4/SciPy-bundle/2019.10-Python-3.7.4/lib/python3.7/site-packages/scipy (version 1.3.1)
libxc:  4.3.4
units:  Angstrom and eV
cores: 16
OMP_NUM_THREADS: 1

Input parameters:
  convergence: {bands: 8}
  kpts: {npoints: 60,
         path: GXWKL}
  mode: {ecut: 200.0,
         gammacentered: False,
         name: pw}
  nbands: 16
  occupations: {name: fermi-dirac,
                width: 0.01}
  random: True
  symmetry: off
  xc: PBE

Initialize ...

Si-setup:
  name: Silicon
  id: ee77bee481871cc2cb65ac61239ccafa
  Z: 14.0
  valence: 4
  core: 10
  charge: 0.0
  file: /apps/Hebbe7/software/Core/GPAW-setups/0.9.20000/Si.PBE.gz
  compensation charges: gauss, rc=0.33, lmax=2
  cutoffs: 1.86(filt), 2.06(core),
  valence states:
                energy  radius
    3s(2.00)   -10.812   1.058
    3p(2.00)    -4.081   1.058
    *s          16.399   1.058
    *p          23.130   1.058
    *d           0.000   1.058

  Using partial waves for Si as LCAO basis

Reference energy: -15772.688500

Spin-paired calculation

Convergence criteria:
  Maximum total energy change: 0.0005 eV / electron
  Maximum integral of absolute density change: 0.0001 electrons
  Maximum integral of absolute eigenstate change: 4e-08 eV^2
  Maximum number of iterations: 333

Symmetries present (total): 1

  ( 1  0  0)
  ( 0  1  0)
  ( 0  0  1)

60 k-points
60 k-points in the irreducible part of the Brillouin zone
       k-points in crystal coordinates                weights
   0:     0.00000000    0.00000000    0.00000000       0.01666667
   1:     0.02173913    0.00000000    0.02173913       0.01666667
   2:     0.04347826    0.00000000    0.04347826       0.01666667
   3:     0.06521739    0.00000000    0.06521739       0.01666667
   4:     0.08695652    0.00000000    0.08695652       0.01666667
   5:     0.10869565    0.00000000    0.10869565       0.01666667
   6:     0.13043478    0.00000000    0.13043478       0.01666667
   7:     0.15217391    0.00000000    0.15217391       0.01666667
   8:     0.17391304    0.00000000    0.17391304       0.01666667
   9:     0.19565217    0.00000000    0.19565217       0.01666667
          ...
  59:     0.50000000    0.50000000    0.50000000       0.01666667

Wave functions: Plane wave expansion
  Cutoff energy: 200.000 eV
  Number of coefficients (min, max): 246, 267
  Pulay-stress correction: 0.000000 eV/Ang^3 (de/decut=0.000000)
  Using FFTW library
  ScaLapack parameters: grid=1x1, blocksize=None
  Wavefunction extrapolation:
    Improved wavefunction reuse through dual PAW basis 

  Fermi-Dirac: width=0.0100 eV

Eigensolver
   Davidson(niter=2, smin=None, normalize=True) 

Densities:
  Coarse grid: 14*14*14 grid
  Fine grid: 28*28*28 grid
  Total Charge: 0.000000 

Density mixing:
  Method: separate
  Backend: pulay
  Linear mixing parameter: 0.05
  Mixing with 5 old densities
  Damping of long wave oscillations: 50 

Hamiltonian:
  XC and Coulomb potentials evaluated on a 28*28*28 grid
  Using the PBE Exchange-Correlation functional
 

XC parameters: PBE with 2 nearest neighbor stencil

Memory estimate:
  Process memory now: 139.03 MiB
  Calculator: 1.93 MiB
    Density: 1.03 MiB
      Arrays: 0.54 MiB
      Localized functions: 0.27 MiB
      Mixer: 0.21 MiB
    Hamiltonian: 0.36 MiB
      Arrays: 0.36 MiB
      XC: 0.00 MiB
      Poisson: 0.00 MiB
      vbar: 0.01 MiB
    Wavefunctions: 0.54 MiB
      Arrays psit_nG: 0.20 MiB
      Eigensolver: 0.13 MiB
      Projections: 0.02 MiB
      Projectors: 0.08 MiB
      PW-descriptor: 0.12 MiB

Total number of cores used: 16
Parallelization over k-points: 16

Number of atoms: 2
Number of atomic orbitals: 8
Number of bands in calculation: 16
Number of valence electrons: 8
Bands to converge: 8

... initialized

Initializing position-dependent things.

Creating initial wave functions:
  8 bands from LCAO basis set
  8 bands from random numbers

                    
                    
                    
                    
           Si       
                    
       Si           
                    
                    
                    
                    

Positions:
   0 Si     0.000000    0.000000    0.000000    ( 0.0000,  0.0000,  0.0000)
   1 Si     1.357500    1.357500    1.357500    ( 0.0000,  0.0000,  0.0000)

Unit cell:
           periodic     x           y           z      points  spacing
  1. axis:    yes    0.000000    2.715000    2.715000    14     0.2239
  2. axis:    yes    2.715000    0.000000    2.715000    14     0.2239
  3. axis:    yes    2.715000    2.715000    0.000000    14     0.2239

  Lengths:   3.839590   3.839590   3.839590
  Angles:   60.000000  60.000000  60.000000

Effective grid spacing dv^(1/3) = 0.2443

                     log10-error:    total        iterations:
           time      wfs    density  energy       poisson
iter:   1  22:05:51  +0.99          -10.226504           
iter:   2  22:06:11  -0.52          -10.230232           
iter:   3  22:06:30  -2.01          -10.230271           
iter:   4  22:06:50  -3.53          -10.230272           
iter:   5  22:07:09  -5.05          -10.230273           
iter:   6  22:07:28  -6.55          -10.230273           
iter:   7  22:07:48  -8.02          -10.230273           

Converged after 7 iterations.

Dipole moment: (-2.923917, -2.923917, -2.923917) |e|*Ang

Energy contributions relative to reference atoms: (reference = -15772.688500)

Kinetic:        +16.238408
Potential:      -13.753300
External:        +0.000000
XC:             -12.665327
Entropy (-ST):   -0.000000
Local:           -0.050054
--------------------------
Free energy:    -10.230273
Extrapolated:   -10.230273

Showing only first 2 kpts
 Kpt  Band  Eigenvalues  Occupancy
  0     2      5.31705    0.03333
  0     3      5.31705    0.03333
  0     4      7.87649    0.00000
  0     5      7.87649    0.00000

  1     2      5.28120    0.03333
  1     3      5.28120    0.03333
  1     4      7.85600    0.00000
  1     5      7.92258    0.00000


Fermi level: 5.84559

Gap: 0.571 eV
Transition (v -> c):
  (s=0, k=0, n=3, [0.00, 0.00, 0.00]) -> (s=0, k=19, n=4, [0.41, 0.00, 0.41])
Timing:                              incl.     excl.
-----------------------------------------------------------
Hamiltonian:                         0.301     0.000   0.0% |
 Atomic:                             0.093     0.093   0.1% |
  XC Correction:                     0.000     0.000   0.0% |
 Calculate atomic Hamiltonians:      0.001     0.001   0.0% |
 Communicate:                        0.000     0.000   0.0% |
 Initialize Hamiltonian:             0.000     0.000   0.0% |
 Poisson:                            0.000     0.000   0.0% |
 XC 3D grid:                         0.206     0.206   0.1% |
LCAO initialization:                 1.562     0.024   0.0% |
 LCAO eigensolver:                   1.276     0.000   0.0% |
  Calculate projections:             0.000     0.000   0.0% |
  DenseAtomicCorrection:             0.000     0.000   0.0% |
  Distribute overlap matrix:         0.000     0.000   0.0% |
  Orbital Layouts:                   1.236     1.236   0.9% |
  Potential matrix:                  0.033     0.033   0.0% |
  Sum over cells:                    0.006     0.006   0.0% |
 LCAO to grid:                       0.104     0.104   0.1% |
 Set positions (LCAO WFS):           0.159     0.014   0.0% |
  Basic WFS set positions:           0.000     0.000   0.0% |
  Basis functions set positions:     0.000     0.000   0.0% |
  P tci:                             0.018     0.018   0.0% |
  ST tci:                            0.029     0.029   0.0% |
  mktci:                             0.097     0.097   0.1% |
PWDescriptor:                        0.022     0.022   0.0% |
SCF-cycle:                         136.513    31.647  22.5% |--------|
 Davidson:                         104.467     1.781   1.3% ||
  Apply H:                           0.050     0.047   0.0% |
   HMM T:                            0.003     0.003   0.0% |
  Subspace diag:                    12.384     0.002   0.0% |
   calc_h_matrix:                    1.249     1.226   0.9% |
    Apply H:                         0.023     0.020   0.0% |
     HMM T:                          0.003     0.003   0.0% |
   diagonalize:                      9.637     9.637   6.9% |--|
   rotate_psi:                       1.496     1.496   1.1% |
  calc. matrices:                    1.385     1.340   1.0% |
   Apply H:                          0.045     0.039   0.0% |
    HMM T:                           0.006     0.006   0.0% |
  diagonalize:                      85.548    85.548  60.9% |-----------------------|
  rotate_psi:                        3.320     3.320   2.4% ||
 Orthonormalize:                     0.399     0.000   0.0% |
  calc_s_matrix:                     0.069     0.069   0.0% |
  inverse-cholesky:                  0.194     0.194   0.1% |
  projections:                       0.001     0.001   0.0% |
  rotate_psi_s:                      0.134     0.134   0.1% |
Set symmetry:                        0.000     0.000   0.0% |
Other:                               2.154     2.154   1.5% ||
-----------------------------------------------------------
Total:                                       140.552 100.0%

Date: Fri Feb 26 22:07:49 2021
